# vtk DataFile Version 3.0
vtk output
ASCII
DATASET UNSTRUCTURED_GRID
POINTS      16224 float
 0.00000000e+00  0.00000000e+00  0.00000000e+00
 1.00000000e+01  0.00000000e+00  0.00000000e+00
 2.00000000e+01  0.00000000e+00  0.00000000e+00
 3.00000000e+01  0.00000000e+00  0.00000000e+00
 4.00000000e+01  0.00000000e+00  0.00000000e+00
 5.00000000e+01  0.00000000e+00  0.00000000e+00
 6.00000000e+01  0.00000000e+00  0.00000000e+00
 7.00000000e+01  0.00000000e+00  0.00000000e+00
 8.00000000e+01  0.00000000e+00  0.00000000e+00
 9.00000000e+01  0.00000000e+00  0.00000000e+00
 1.00000000e+02  0.00000000e+00  0.00000000e+00
 1.10000000e+02  0.00000000e+00  0.00000000e+00
 1.20000000e+02  0.00000000e+00  0.00000000e+00
 1.30000000e+02  0.00000000e+00  0.00000000e+00
 1.40000000e+02  0.00000000e+00  0.00000000e+00
 1.50000000e+02  0.00000000e+00  0.00000000e+00
 1.60000000e+02  0.00000000e+00  0.00000000e+00
 1.70000000e+02  0.00000000e+00  0.00000000e+00
 1.80000000e+02  0.00000000e+00  0.00000000e+00
 1.90000000e+02  0.00000000e+00  0.00000000e+00
 2.00000000e+02  0.00000000e+00  0.00000000e+00
 2.10000000e+02  0.00000000e+00  0.00000000e+00
 2.20000000e+02  0.00000000e+00  0.00000000e+00
 2.30000000e+02  0.00000000e+00  0.00000000e+00
 2.40000000e+02  0.00000000e+00  0.00000000e+00
 2.50000000e+02  0.00000000e+00  0.00000000e+00
 2.60000000e+02  0.00000000e+00  0.00000000e+00
 2.70000000e+02  0.00000000e+00  0.00000000e+00
 2.80000000e+02  0.00000000e+00  0.00000000e+00
 2.90000000e+02  0.00000000e+00  0.00000000e+00
 3.00000000e+02  0.00000000e+00  0.00000000e+00
 3.10000000e+02  0.00000000e+00  0.00000000e+00
 3.20000000e+02  0.00000000e+00  0.00000000e+00
 3.30000000e+02  0.00000000e+00  0.00000000e+00
 3.40000000e+02  0.00000000e+00  0.00000000e+00
 3.50000000e+02  0.00000000e+00  0.00000000e+00
 3.60000000e+02  0.00000000e+00  0.00000000e+00
 3.70000000e+02  0.00000000e+00  0.00000000e+00
 3.80000000e+02  0.00000000e+00  0.00000000e+00
 3.90000000e+02  0.00000000e+00  0.00000000e+00
 4.00000000e+02  0.00000000e+00  0.00000000e+00
 4.10000000e+02  0.00000000e+00  0.00000000e+00
 4.20000000e+02  0.00000000e+00  0.00000000e+00
 4.30000000e+02  0.00000000e+00  0.00000000e+00
 4.40000000e+02  0.00000000e+00  0.00000000e+00
 4.50000000e+02  0.00000000e+00  0.00000000e+00
 4.60000000e+02  0.00000000e+00  0.00000000e+00
 4.70000000e+02  0.00000000e+00  0.00000000e+00
 4.80000000e+02  0.00000000e+00  0.00000000e+00
 4.90000000e+02  0.00000000e+00  0.00000000e+00
 5.00000000e+02  0.00000000e+00  0.00000000e+00
 5.10000000e+02  0.00000000e+00  0.00000000e+00
 0.00000000e+00  1.00000000e+01  0.00000000e+00
 1.00000000e+01  1.00000000e+01  0.00000000e+00
 2.00000000e+01  1.00000000e+01  0.00000000e+00
 3.00000000e+01  1.00000000e+01  0.00000000e+00
 4.00000000e+01  1.00000000e+01  0.00000000e+00
 5.00000000e+01  1.00000000e+01  0.00000000e+00
 6.00000000e+01  1.00000000e+01  0.00000000e+00
 7.00000000e+01  1.00000000e+01  0.00000000e+00
 8.00000000e+01  1.00000000e+01  0.00000000e+00
 9.00000000e+01  1.00000000e+01  0.00000000e+00
 1.00000000e+02  1.00000000e+01  0.00000000e+00
 1.10000000e+02  1.00000000e+01  0.00000000e+00
 1.20000000e+02  1.00000000e+01  0.00000000e+00
 1.30000000e+02  1.00000000e+01  0.00000000e+00
 1.40000000e+02  1.00000000e+01  0.00000000e+00
 1.50000000e+02  1.00000000e+01  0.00000000e+00
 1.60000000e+02  1.00000000e+01  0.00000000e+00
 1.70000000e+02  1.00000000e+01  0.00000000e+00
 1.80000000e+02  1.00000000e+01  0.00000000e+00
 1.90000000e+02  1.00000000e+01  0.00000000e+00
 2.00000000e+02  1.00000000e+01  0.00000000e+00
 2.10000000e+02  1.00000000e+01  0.00000000e+00
 2.20000000e+02  1.00000000e+01  0.00000000e+00
 2.30000000e+02  1.00000000e+01  0.00000000e+00
 2.40000000e+02  1.00000000e+01  0.00000000e+00
 2.50000000e+02  1.00000000e+01  0.00000000e+00
 2.60000000e+02  1.00000000e+01  0.00000000e+00
 2.70000000e+02  1.00000000e+01  0.00000000e+00
 2.80000000e+02  1.00000000e+01  0.00000000e+00
 2.90000000e+02  1.00000000e+01  0.00000000e+00
 3.00000000e+02  1.00000000e+01  0.00000000e+00
 3.10000000e+02  1.00000000e+01  0.00000000e+00
 3.20000000e+02  1.00000000e+01  0.00000000e+00
 3.30000000e+02  1.00000000e+01  0.00000000e+00
 3.40000000e+02  1.00000000e+01  0.00000000e+00
 3.50000000e+02  1.00000000e+01  0.00000000e+00
 3.60000000e+02  1.00000000e+01  0.00000000e+00
 3.70000000e+02  1.00000000e+01  0.00000000e+00
 3.80000000e+02  1.00000000e+01  0.00000000e+00
 3.90000000e+02  1.00000000e+01  0.00000000e+00
 4.00000000e+02  1.00000000e+01  0.00000000e+00
 4.10000000e+02  1.00000000e+01  0.00000000e+00
 4.20000000e+02  1.00000000e+01  0.00000000e+00
 4.30000000e+02  1.00000000e+01  0.00000000e+00
 4.40000000e+02  1.00000000e+01  0.00000000e+00
 4.50000000e+02  1.00000000e+01  0.00000000e+00
 4.60000000e+02  1.00000000e+01  0.00000000e+00
 4.70000000e+02  1.00000000e+01  0.00000000e+00
 4.80000000e+02  1.00000000e+01  0.00000000e+00
 4.90000000e+02  1.00000000e+01  0.00000000e+00
 5.00000000e+02  1.00000000e+01  0.00000000e+00
 5.10000000e+02  1.00000000e+01  0.00000000e+00
 0.00000000e+00  2.00000000e+01  0.00000000e+00
 1.00000000e+01  2.00000000e+01  0.00000000e+00
 2.00000000e+01  2.00000000e+01  0.00000000e+00
 3.00000000e+01  2.00000000e+01  0.00000000e+00
 4.00000000e+01  2.00000000e+01  0.00000000e+00
 5.00000000e+01  2.00000000e+01  0.00000000e+00
 6.00000000e+01  2.00000000e+01  0.00000000e+00
 7.00000000e+01  2.00000000e+01  0.00000000e+00
 8.00000000e+01  2.00000000e+01  0.00000000e+00
 9.00000000e+01  2.00000000e+01  0.00000000e+00
 1.00000000e+02  2.00000000e+01  0.00000000e+00
 1.10000000e+02  2.00000000e+01  0.00000000e+00
 1.20000000e+02  2.00000000e+01  0.00000000e+00
 1.30000000e+02  2.00000000e+01  0.00000000e+00
 1.40000000e+02  2.00000000e+01  0.00000000e+00
 1.50000000e+02  2.00000000e+01  0.00000000e+00
 1.60000000e+02  2.00000000e+01  0.00000000e+00
 1.70000000e+02  2.00000000e+01  0.00000000e+00
 1.80000000e+02  2.00000000e+01  0.00000000e+00
 1.90000000e+02  2.00000000e+01  0.00000000e+00
 2.00000000e+02  2.00000000e+01  0.00000000e+00
 2.10000000e+02  2.00000000e+01  0.00000000e+00
 2.20000000e+02  2.00000000e+01  0.00000000e+00
 2.30000000e+02  2.00000000e+01  0.00000000e+00
 2.40000000e+02  2.00000000e+01  0.00000000e+00
 2.50000000e+02  2.00000000e+01  0.00000000e+00
 2.60000000e+02  2.00000000e+01  0.00000000e+00
 2.70000000e+02  2.00000000e+01  0.00000000e+00
 2.80000000e+02  2.00000000e+01  0.00000000e+00
 2.90000000e+02  2.00000000e+01  0.00000000e+00
 3.00000000e+02  2.00000000e+01  0.00000000e+00
 3.10000000e+02  2.00000000e+01  0.00000000e+00
 3.20000000e+02  2.00000000e+01  0.00000000e+00
 3.30000000e+02  2.00000000e+01  0.00000000e+00
 3.40000000e+02  2.00000000e+01  0.00000000e+00
 3.50000000e+02  2.00000000e+01  0.00000000e+00
 3.60000000e+02  2.00000000e+01  0.00000000e+00
 3.70000000e+02  2.00000000e+01  0.00000000e+00
 3.80000000e+02  2.00000000e+01  0.00000000e+00
 3.90000000e+02  2.00000000e+01  0.00000000e+00
 4.00000000e+02  2.00000000e+01  0.00000000e+00
 4.10000000e+02  2.00000000e+01  0.00000000e+00
 4.20000000e+02  2.00000000e+01  0.00000000e+00
 4.30000000e+02  2.00000000e+01  0.00000000e+00
 4.40000000e+02  2.00000000e+01  0.00000000e+00
 4.50000000e+02  2.00000000e+01  0.00000000e+00
 4.60000000e+02  2.00000000e+01  0.00000000e+00
 4.70000000e+02  2.00000000e+01  0.00000000e+00
 4.80000000e+02  2.00000000e+01  0.00000000e+00
 4.90000000e+02  2.00000000e+01  0.00000000e+00
 5.00000000e+02  2.00000000e+01  0.00000000e+00
 5.10000000e+02  2.00000000e+01  0.00000000e+00
 0.00000000e+00  3.00000000e+01  0.00000000e+00
 1.00000000e+01  3.00000000e+01  0.00000000e+00
 2.00000000e+01  3.00000000e+01  0.00000000e+00
 3.00000000e+01  3.00000000e+01  0.00000000e+00
 4.00000000e+01  3.00000000e+01  0.00000000e+00
 5.00000000e+01  3.00000000e+01  0.00000000e+00
 6.00000000e+01  3.00000000e+01  0.00000000e+00
 7.00000000e+01  3.00000000e+01  0.00000000e+00
 8.00000000e+01  3.00000000e+01  0.00000000e+00
 9.00000000e+01  3.00000000e+01  0.00000000e+00
 1.00000000e+02  3.00000000e+01  0.00000000e+00
 1.10000000e+02  3.00000000e+01  0.00000000e+00
 1.20000000e+02  3.00000000e+01  0.00000000e+00
 1.30000000e+02  3.00000000e+01  0.00000000e+00
 1.40000000e+02  3.00000000e+01  0.00000000e+00
 1.50000000e+02  3.00000000e+01  0.00000000e+00
 1.60000000e+02  3.00000000e+01  0.00000000e+00
 1.70000000e+02  3.00000000e+01  0.00000000e+00
 1.80000000e+02  3.00000000e+01  0.00000000e+00
 1.90000000e+02  3.00000000e+01  0.00000000e+00
 2.00000000e+02  3.00000000e+01  0.00000000e+00
 2.10000000e+02  3.00000000e+01  0.00000000e+00
 2.20000000e+02  3.00000000e+01  0.00000000e+00
 2.30000000e+02  3.00000000e+01  0.00000000e+00
 2.40000000e+02  3.00000000e+01  0.00000000e+00
 2.50000000e+02  3.00000000e+01  0.00000000e+00
 2.60000000e+02  3.00000000e+01  0.00000000e+00
 2.70000000e+02  3.00000000e+01  0.00000000e+00
 2.80000000e+02  3.00000000e+01  0.00000000e+00
 2.90000000e+02  3.00000000e+01  0.00000000e+00
 3.00000000e+02  3.00000000e+01  0.00000000e+00
 3.10000000e+02  3.00000000e+01  0.00000000e+00
 3.20000000e+02  3.00000000e+01  0.00000000e+00
 3.30000000e+02  3.00000000e+01  0.00000000e+00
 3.40000000e+02  3.00000000e+01  0.00000000e+00
 3.50000000e+02  3.00000000e+01  0.00000000e+00
 3.60000000e+02  3.00000000e+01  0.00000000e+00
 3.70000000e+02  3.00000000e+01  0.00000000e+00
 3.80000000e+02  3.00000000e+01  0.00000000e+00
 3.90000000e+02  3.00000000e+01  0.00000000e+00
 4.00000000e+02  3.00000000e+01  0.00000000e+00
 4.10000000e+02  3.00000000e+01  0.00000000e+00
 4.20000000e+02  3.00000000e+01  0.00000000e+00
 4.30000000e+02  3.00000000e+01  0.00000000e+00
 4.40000000e+02  3.00000000e+01  0.00000000e+00
 4.50000000e+02  3.00000000e+01  0.00000000e+00
 4.60000000e+02  3.00000000e+01  0.00000000e+00
 4.70000000e+02  3.00000000e+01  0.00000000e+00
 4.80000000e+02  3.00000000e+01  0.00000000e+00
 4.90000000e+02  3.00000000e+01  0.00000000e+00
[...]
CELL_DATA      13005
SCALARS log(K) double
LOOKUP_TABLE default
0.663302
-0.373292
-0.454368
-1.27789
-1.68801
-1.96865
-1.78209
-1.04024
-0.865787
-1.74603
-1.37247
-0.775197
-0.430884
0.000493179
-1.27964
-2.07465
-0.862785
-0.733084
-0.46309
-1.42117
-1.44258
-1.0112
-1.36739
-1.3378
-0.0368705
0.160973
0.0645074
1.09702
0.62794
2.0084
1.68651
0.964453
-0.179321
-0.588813
-0.385249
-1.11437
-0.491104
-0.099816
0.381235
1.12277
0.597237
0.91758
0.380251
-1.18537
-1.05834
-0.241297
-0.596545
-0.561784
-0.129185
-0.587173
-0.68789
0.413045
-0.167633
-0.601498
-0.990592
-1.8393
-1.71616
-1.86678
-1.64558
-0.769046
-0.75764
-0.497352
0.601286
0.407848
-0.562277
-0.596481
-1.50548
-1.40717
-1.79547
-1.20005
-1.17637
-0.834754
-0.917881
-0.568607
-1.13584
-0.152562
0.872252
0.932913
1.08952
0.536026
0.982621
0.944498
-0.0845367
-0.644331
-0.280855
-0.557239
-1.02028
-0.543024
-0.158531
0.101291
-0.114671
-0.0210938
0.985899
1.2022
-0.0144327
-0.64629
-0.640168
-0.28298
-0.0691605
-0.876923
-0.766355
0.0666458
0.29046
-1.26199
-1.39945
-1.06212
-1.48974
-0.882162
-2.04067
-1.58889
-0.936966
0.48121
0.338319
-0.0495563
0.396536
0.143823
0.250904
-0.495936
-0.81402
-1.65066
-0.322119
-0.978556
-0.343702
-0.464229
-0.697555
-1.38221
-0.430557
-0.0148527
0.937001
1.31633
1.72407
1.28661
0.74179
0.8146
0.135761
0.419411
0.54002
-0.171779
-0.75572
-0.393558
0.443873
-0.453846
1.13375
0.850673
-0.672719
-0.168195
-0.651372
-0.502523
-0.319345
-0.5158
-0.449359
-0.855074
0.398323
-0.201831
-1.48428
-0.799873
-0.994137
-0.0918171
-0.138267
-1.46374
-1.41619
-0.74693
-0.495944
-0.140574
0.80739
0.479198
0.96712
0.430779
-0.258466
-0.300222
-0.187637
0.462161
-0.271968
-0.194445
-0.459175
-0.159152
-0.604504
0.367562
0.37208
1.24363
2.05366
2.08625
0.845467
-0.174807
0.476838
0.812945
0.388709
0.732212
0.664564
-0.218599
-0.142761
0.127734
0.429198
1.37092
0.682386
0.555018
-0.625471
-0.957988
-0.534306
-0.255684
-0.0354783
-0.273731
-0.26217
-0.394559
-0.342104
-0.910431
-1.30369
-1.09384
-1.86173
-0.411633
-0.818386
-0.247062
-0.425927
-0.343636
0.220857
-0.453907
0.964713
0.322298
-0.311224
-0.396131
-0.576865
0.369569
-0.306172
0.089068
0.272974
0.322948
-0.264485
0.423899
-0.118092
0.940452
1.75815
1.95533
1.69161
0.717943
0.174221
0.541352
0.410275
0.752387
1.6007
1.20638
0.885329
0.358909
-0.840477
-0.148834
0.786662
1.21148
0.91207
-0.00114631
-0.235524
-1.14747
0.157404
-0.149555
0.181017
0.0298276
-0.460156
0.211664
-0.607863
-0.882872
-1.23578
-1.63922
-1.12967
-0.258287
0.0723315
0.652777
-0.287133
0.0860411
-0.978043
0.352723
0.656768
-0.450137
-0.827408
-0.0213907
-0.536599
0.255746
0.42883
0.0149267
-0.0928777
0.687222
0.904524
0.743211
0.394951
1.37674
0.906676
0.485615
-0.408201
-0.343329
0.552723
0.861668
1.51324
1.17532
1.21228
1.10896
0.0416965
-0.173001
-0.187144
0.538795
1.29489
1.23249
0.654066
-0.311387
-0.953699
-0.537198
0.144626
0.341247
-0.0203992
-0.081952
-0.176802
0.0277689
-0.22754
-1.38759
-1.0788
-1.28743
-0.484129
0.209045
0.409868
-0.526656
-0.259524
0.295774
0.719502
-0.14505
-0.297281
-0.414435
-1.31277
-0.435349
-0.436574
0.324762
-0.510881
0.156928
0.863018
0.746798
0.323801
0.794785
1.04619
0.105685
1.18932
0.378822
0.335277
0.446725
0.796142
0.173734
1.60829
0.755901
0.993295
0.445724
-0.685118
0.600316
0.596181
1.24165
0.640609
0.00368944
0.887575
0.104759
-0.538326
-0.127812
0.647902
0.00833567
0.375477
0.112042
-0.372022
-0.332086
-0.87801
-0.545926
0.359797
0.387303
-0.3702
-0.294293
-0.331672
0.00267983
0.197095
-0.055438
0.104663
-0.221273
-1.11816
-1.5723
-1.45798
-0.980184
-0.270518
-0.0189187
0.0484147
0.443068
1.04364
0.706699
0.215957
0.631558
1.12244
1.00547
0.627597
0.433416
0.203096
-0.601214
0.56668
0.637847
0.858021
0.96764
0.533128
-0.418537
0.752736
1.19051
0.713981
0.981791
0.117214
0.462459
0.268541
0.499587
-0.47702
-0.00638846
0.422672
0.874148
-0.0736564
-0.830223
-0.662636
-1.04668
-1.0209
0.00777112
0.0132218
-0.2801
0.11827
-1.24223
-0.25429
0.144728
0.516453
-0.243625
-0.631943
-0.892762
-1.25002
-0.211159
-0.721688
0.240062
0.595278
0.64156
1.14526
1.89439
1.05561
1.18307
0.762311
0.655431
0.576148
1.6975
1.16548
-0.408227
0.303348
0.202293
0.0411496
0.02721
0.389663
0.707884
0.28504
0.7536
0.5169
0.384207
1.0347
0.36117
0.0432983
0.0798219
0.188686
0.465518
0.733789
0.765763
0.877353
0.249167
-0.322054
-0.933587
-0.996541
-0.178748
-0.4165
-0.0682014
0.156446
-0.806419
-1.68635
-1.28217
-0.0501343
-0.299457
-1.18134
-1.36596
-0.491429
-0.809018
-0.566576
-0.524557
0.341846
0.128231
0.400134
0.822292
0.814427
0.896364
0.241555
0.204246
0.538845
1.19497
1.49748
0.945932
0.102771
0.106117
0.0435955
-0.309482
-1.08876
-0.594999
-0.126792
0.0694309
-0.421474
0.120182
1.02761
0.347677
0.517324
0.630672
0.573061
1.27748
0.498777
0.330297
0.977762
0.760745
-0.0108456
-0.179178
-0.489824
-1.1747
-0.602375
-0.484338
-1.02754
-0.687265
-0.728185
-1.89418
-1.57408
-1.58126
-0.856331
-0.499189
-0.971926
-0.599402
-0.205897
-1.00157
-0.680612
0.202268
-0.148093
0.198996
0.74547
1.12315
0.341077
0.378794
-0.836459
0.708727
0.183421
0.996065
1.08695
0.538652
-0.383258
-0.229164
-0.205945
-0.557879
-1.12292
-0.685131
0.19936
-0.574884
-0.32642
0.0292721
0.582067
0.025699
-0.324048
-0.200993
0.486991
0.614367
-0.0630758
0.886541
0.754145
-0.16582
-0.255508
-0.16668
-1.08596
-0.554337
-0.0431884
-1.4413
-0.508311
-0.921141
-1.51559
-1.46329
-0.791483
-1.66552
-1.82784
0.137512
-0.328414
-0.853978
-0.476347
-0.839556
-0.596083
-0.635597
-0.046203
0.590154
0.32136
0.398608
-0.85333
-1.47029
0.166061
0.0968219
-0.138516
0.673089
0.800904
0.57595
0.621339
-0.0859851
-0.388137
-1.20053
-1.41975
-0.637998
-0.858322
0.0946154
0.56223
0.00981489
0.0267685
-1.03571
-0.486332
-0.210863
0.990976
0.410572
0.893285
0.771053
-0.0340078
-0.427542
-0.578004
-0.0733018
0.187179
-0.359063
-0.515717
-0.530445
-0.326986
-1.10863
-1.39662
-1.50695
-1.51939
-1.19638
-0.055185
-0.441652
-1.22866
-1.07488
-0.178263
-0.659189
-0.651444
0.252921
0.438746
-0.247394
-0.610092
-1.55122
-1.41945
-0.718024
0.180751
0.136762
0.201203
0.707975
0.688916
-0.0545676
0.144705
-0.754404
-1.0393
-1.58266
-1.04527
-0.645893
-0.150388
-0.384555
-1.17689
-1.26612
-1.72159
-0.961375
-0.196145
-0.383311
0.643343
0.375343
0.427091
-0.492383
-0.0394806
-0.529331
-0.769969
-0.237407
0.0207704
-0.198422
0.162977
-0.60475
-0.854003
-0.578003
-0.727202
-1.62208
-1.14153
-1.20495
-0.546993
-1.67282
-0.409109
-1.10894
-0.383005
-0.00708291
-0.353684
-0.791321
-0.693958
-1.26111
-1.73336
-0.522033
-0.503732
0.751498
-0.101411
-0.423857
0.185666
0.680954
0.781969
-0.239771
-0.122352
-0.346457
-0.624779
-1.07581
-0.760806
-0.687061
-0.976822
-1.0716
-0.894711
-0.496758
-0.760685
-0.129375
-1.03708
-0.775772
-0.0357175
0.178198
-0.603295
-1.41305
-0.556846
-0.70148
-0.48453
-0.523176
0.164753
0.518095
0.209872
-0.595926
-0.846498
-0.57346
-0.780448
-0.701378
-0.0559921
0.159984
-0.489757
-0.22913
0.264591
0.658037
-0.446393
-1.04744
-0.66394
-0.332077
-0.0960789
-0.693189
-0.786207
-0.594323
0.26441
0.352465
-0.266917
0.0898981
1.38616
1.13858
-0.499575
-0.722351
-1.07686
-1.19328
-0.0428573
-0.424431
-0.914801
-0.948072
-0.712187
-0.765996
-0.876394
-1.77652
-1.66146
-2.25705
-1.32632
-0.385913
-0.209653
-1.23234
-1.53811
-1.15114
-0.288618
-0.566098
-1.70853
-0.143971
0.232259
0.992425
0.15405
-0.614178
-0.921537
-1.53324
-0.977693
-0.737298
-0.816597
-0.545117
0.496657
0.553974
0.647982
0.171049
-0.103147
-0.214385
0.0565709
0.412301
-0.0239095
-0.561155
-0.821657
0.491085
0.689371
-0.223485
0.0289737
0.631548
0.857202
0.727152
-0.448804
-0.535665
-0.500505
-0.798853
-0.58651
-0.418474
-0.403912
0.0497526
-0.153258
0.17089
-0.832105
-1.26551
-1.99591
-1.88851
-0.325698
-0.235153
-1.34483
-2.49069
-0.977482
-0.64723
-0.106964
-0.698632
-1.25858
-0.945675
-0.367622
0.287429
-0.479041
-0.934345
-1.0805
-0.664249
-1.25736
-1.32144
-0.620992
0.607193
1.33811
0.631005
0.589606
0.510552
0.404817
0.504798
0.288127
0.165145
0.199291
0.759963
1.15259
0.631856
-0.265554
-0.408535
0.949669
0.779483
-0.298039
-0.125955
-0.461821
-0.978506
-1.57498
-1.57252
-0.14362
-0.537771
-1.07385
-1.38617
-0.444297
-0.97828
-1.18698
-2.49917
-1.41128
-1.22523
-0.477076
-1.9373
-1.73653
-0.960266
-0.934193
-0.686266
-0.144462
-0.544654
-0.231939
-0.168384
-0.468084
-0.748763
-0.394669
-0.605899
-0.930722
-1.25485
-1.22474
-0.458863
0.687993
1.20511
0.321736
-0.250535
0.144583
0.353506
0.416963
0.282726
0.289955
0.568394
0.231835
0.559191
1.09799
0.555797
0.614384
0.76499
0.499033
0.264196
-0.121999
0.226495
-0.224695
-0.77914
-0.87371
-0.0939966
-1.06915
-0.686476
-1.51937
-1.17344
-0.741238
-0.733917
-0.467159
-1.37548
-1.59003
-1.21026
-1.8315
-1.98652
-2.04002
-1.13843
0.0916424
0.0951132
-1.17198
-0.291922
-0.517265
-0.694354
-0.416993
-0.458475
0.0133964
-0.489048
-0.548227
-0.362214
-0.403833
0.332451
-0.366363
-0.881128
-0.842062
0.853047
-0.369034
0.4208
0.0323562
-0.808961
0.405195
0.819624
0.715337
1.61561
1.38571
1.11121
1.09568
0.955085
0.778376
-0.095897
-0.180033
0.333351
-0.458077
-1.45714
0.310321
-0.558354
-0.630409
-0.83208
-0.697685
-0.320768
-0.489096
-0.839461
-0.812484
-0.712814
-1.871
-1.53996
-1.09578
-1.59015
-1.37297
-0.209848
-0.157905
-0.728505
-0.461351
-0.166983
-0.412364
-0.825906
-0.739239
-0.0946297
-0.150103
-1.03335
-0.473716
-0.609103
-0.309534
-0.595507
-0.702162
0.276363
0.295625
0.443827
1.30791
-0.0168116
-0.303473
-0.124048
0.0237927
0.86777
1.17796
1.84337
1.16071
1.01095
0.974457
0.772271
0.778781
0.860037
0.623638
0.412672
-1.21845
-0.31214
-0.979238
-1.07689
-1.04368
-1.09712
-1.15643
-1.63399
-0.103588
-0.262108
-0.867722
-1.77072
-1.37199
-1.43693
-2.04266
-1.89061
-0.294382
-0.869263
-0.646851
-0.556356
0.0918258
0.236569
0.83577
-0.479446
-0.154758
-0.209423
-0.105918
-0.17148
-0.795722
-0.195765
-0.475179
0.0104093
-0.36907
-0.310565
0.835088
0.638123
0.773376
0.396741
-0.0882338
0.0123494
1.3893
1.16914
1.22386
1.00991
1.32252
0.622423
0.227055
1.22826
1.01154
-0.0777221
0.404888
0.0171044
-0.775449
-0.588226
-1.31489
-1.23179
-1.39633
-1.46809
-1.12951
-0.936667
-0.671368
-1.00349
-0.641524
-0.444464
-0.773326
-1.4771
-1.15357
-0.679128
-1.52041
-1.61724
-0.535487
0.218509
0.576892
-0.270262
0.187438
-0.0905033
0.0272228
-0.607471
-0.810911
-0.380519
-0.895028
-0.0792508
0.0287829
-0.493544
0.349028
0.840347
0.596801
0.909369
0.485074
0.453632
0.68277
1.50504
0.901984
1.07992
1.78183
1.20645
0.653737
0.541596
0.171584
1.38599
0.752295
0.440489
-0.5349
-1.03578
-1.12407
-1.6946
-1.39498
-0.927278
-1.28916
-1.77228
-1.46755
-1.21427
-0.650714
-0.354872
-0.597304
-0.878539
-0.865472
-1.31753
-1.18835
-1.11185
-0.54396
0.16283
0.382249
-0.250363
-1.12386
-0.825506
0.000726467
-0.103457
-0.21697
-1.59593
-0.847457
-1.39628
-1.36905
-0.676938
-0.401176
0.258606
1.46689
0.4466
-0.06155
-0.050551
-0.180012
0.887002
0.770222
0.549268
0.126369
0.418887
0.639622
0.632716
0.554155
-0.06943
-0.348845
0.559273
0.228057
-0.0725134
-0.574515
-0.00769861
-0.0374375
-0.955617
-1.03881
-1.32823
-1.32524
-1.09397
-0.616193
-0.457512
-1.72457
0.00650371
0.289867
-0.367574
-1.03041
-1.41886
-0.823769
-0.596483
-0.274888
-0.269101
-0.561928
-0.0855431
-0.741109
-0.0191703
-1.15329
-1.11624
-1.4509
-0.826378
-0.761924
-1.46105
-0.555714
-0.558484
-0.601544
0.355347
-0.50193
-0.109436
0.397462
0.531959
0.977232
1.00937
0.00279207
0.836566
0.361338
0.839837
0.682924
-0.208049
-0.135349
0.555581
0.151391
-0.251967
-0.0145532
0.228863
0.774811
0.741027
0.0224613
-0.769237
-1.32061
-0.841084
-0.683662
-0.198682
-0.451318
-0.967499
0.156388
0.344142
0.402401
-0.392927
-0.782813
-0.563833
0.029592
-0.537888
-0.182991
0.182536
-0.799438
-1.81994
-1.58616
-1.04238
-1.12423
-0.9596
-0.625826
-1.87638
-2.08751
-1.86601
-1.06435
-1.14673
0.141945
0.156084
0.635466
-0.35551
0.110095
0.858851
0.473557
0.33643
0.73261
0.300957
0.423079
0.0209642
-0.0332355
-0.0557056
-0.00419249
0.229356
0.929809
0.560106
0.400903
0.688288
0.0398993
-0.103458
-0.0454274
-1.17402
-1.34166
-0.0710444
0.0743868
-0.599175
-0.715395
0.318214
-0.293973
0.456345
0.0107147
-0.43071
-0.91541
-0.0484467
-0.699568
-0.482848
-0.732728
-0.902567
-1.66144
-2.00904
-0.878792
-0.992604
-0.733649
-0.708871
-1.82633
-2.4134
-1.86375
-2.23621
-2.48427
-0.607506
-0.286241
0.0871529
0.25346
-0.723667
-0.329801
-0.360958
0.419341
1.19642
1.31905
0.427869
-0.296756
-0.872692
-0.403235
0.527193
0.145586
0.827111
0.226864
-0.0468726
0.661581
0.814328
-0.301296
-0.185357
-1.15528
-0.498732
-0.341857
-0.281578
-1.10302
-0.821008
0.433
-0.268945
0.240811
0.363269
-0.368326
-0.256188
0.278806
-0.446428
-0.283788
-0.234715
-1.15471
-0.899162
-1.63622
-1.12106
-0.77958
0.415077
-0.809738
-2.00662
-2.57184
-1.78616
-1.38159
-2.80732
-2.52931
-0.825471
0.0331937
0.611487
-0.523349
-0.406727
-0.14768
-0.435529
0.336794
0.132947
-0.438746
-1.01217
-0.822732
0.397231
0.646151
0.44128
1.16842
0.867102
1.03722
0.280522
-0.00142923
-0.0653822
-0.308013
-0.405875
-0.541028
-0.0812786
-1.40214
-0.286008
-0.812935
0.0148671
0.24294
-0.0348128
-0.59178
-0.424317
-0.509526
-0.914177
-0.795288
-1.28012
-1.01528
-1.60307
-1.62578
-0.892599
-0.894645
-0.713154
0.0966803
-0.139734
-1.57741
-1.6539
-1.92695
-1.51275
-2.215
-2.35322
-0.860514
0.517965
1.19594
-0.0118777
-0.943391
-0.341342
0.0848943
0.366042
0.38504
-0.323901
-0.848546
0.0310474
0.341835
0.204697
0.699379
1.11382
0.288346
0.307366
0.0996557
-0.18038
-0.950821
-0.429518
-0.179734
-1.21393
-1.17702
-1.49345
0.0970764
-0.649649
0.570012
0.571696
-0.0049745
0.198669
-0.627362
-0.756521
-0.61344
-0.849856
-1.5228
-1.65099
-1.3344
-0.77276
-0.757071
-0.932915
-0.671845
0.149332
-0.603894
-1.52976
-1.34421
-0.668326
-0.801394
-1.80537
-1.23572
-0.455581
-0.314052
0.339572
-0.105931
-0.686397
-0.325823
0.754094
0.858377
1.07758
1.1149
0.407713
1.09945
1.34421
0.749202
1.36518
1.23875
0.635082
-0.245306
-0.499336
-0.631744
-1.51487
-1.87501
-1.72779
-1.26592
-1.00683
-1.06444
-0.670162
-1.25891
0.856123
1.18964
0.0449368
-0.163491
0.128929
-1.01828
-1.04393
-0.49834
-1.47236
-1.15369
-0.60535
-1.04166
-1.06661
-0.388741
-0.772639
-0.476352
-0.735515
-0.668582
-0.640856
-0.624042
-1.37736
-2.22131
-1.37506
-0.746861
-0.119152
0.652719
0.180757
0.847012
0.486243
0.803546
1.29779
1.43452
1.62405
1.45821
1.54953
0.645384
0.175733
-0.0868304
0.127371
-0.184578
-0.63304
-1.36627
-1.48537
-1.75482
-1.59128
-1.89888
-1.6643
-0.823844
-0.257859
-1.80173
-1.23103
0.0383943
1.05981
-0.152269
-0.621142
-0.494421
-0.56985
-1.7079
-1.36508
-1.87058
-0.895401
-0.085054
-1.03056
-0.831535
-0.709542
-0.282459
-0.268329
-0.776695
-0.485081
-0.649568
-0.72108
-0.536308
-0.935001
-1.75788
-0.552881
-0.0661004
1.04961
0.599148
0.714604
0.83419
1.03534
1.14244
0.896777
1.85299
1.34863
0.611894
0.370875
-0.233156
-0.287254
-0.120793
-1.01608
-0.536397
-0.601354
-0.784718
-1.19009
-0.671111
-0.79023
-0.866014
-0.0888609
-0.426124
-1.70115
-1.49309
-1.10403
-0.37086
-0.619534
-0.70723
-1.06307
-1.58983
-2.05481
-2.20132
-1.42566
-1.10253
-0.572033
0.206296
-0.193291
-0.704853
-0.98296
-0.352047
-0.668423
-0.135881
-0.000984958
-0.464832
-1.02015
-1.4918
-0.527005
0.235738
0.145638
0.271384
0.383988
0.328594
0.0938533
0.51634
0.344727
1.51932
1.88248
1.45286
0.63193
-1.16687
-0.631182
-0.218834
-0.997662
-0.018484
-0.272167
0.183835
-0.127286
-0.508558
-1.10155
-0.751408
-0.351652
-0.85361
-1.27311
-1.18876
-0.897444
-0.662182
-0.338322
-0.775933
-0.669082
-1.09436
-0.685471
-1.23471
-2.06626
-2.123
-0.657661
-0.404859
-0.211223
-0.328478
-0.286968
-0.831908
-0.151347
-0.334484
-0.184773
-0.717476
-0.259443
0.0739215
-0.505647
-0.924627
1.16943
0.0671934
0.454832
1.03513
0.452413
0.411494
1.02266
0.370457
0.891928
2.20974
1.17999
0.319211
-0.687543
-1.02493
-0.592084
-0.655572
-0.260651
-0.604342
0.415718
0.695918
0.983459
0.31729
-1.33607
-0.512991
-0.392404
-1.02063
-1.54911
-0.517613
0.835868
0.0530785
-0.633585
-1.04601
-0.965705
-0.0723328
-0.304411
-0.667197
-1.27735
-0.65572
-1.41455
-0.609646
-0.291742
-0.74572
-0.331823
-0.385844
0.667094
0.350922
-0.748382
-0.500265
-0.159226
0.259733
-0.137188
-0.0986055
0.358731
0.277497
0.800238
1.07501
1.01785
0.978793
0.672261
0.648716
1.39783
1.58276
0.598522
0.144262
-0.21173
0.0303062
-0.26796
-0.59369
-0.327422
0.199392
0.992556
0.3153
-0.496878
-0.327287
-1.12411
-0.117369
-0.588196
-0.467609
-0.82235
1.02138
-0.230744
-1.14972
-0.724686
-0.689387
0.0521711
-0.627953
-0.134496
-0.46885
-0.992983
-0.48189
-0.368133
-0.254218
-0.313349
-0.0272535
-0.130197
-0.239322
-0.325748
-0.386315
-0.0564773
-0.0698072
-0.0786983
-0.413082
-0.300433
0.0224228
0.327039
0.814738
1.41666
2.01969
1.82531
1.80154
1.29879
0.688391
-0.329835
0.544879
-0.185445
-0.269262
0.0834994
0.617794
0.937213
-0.0165027
-0.189362
0.523485
1.16651
0.771836
0.672511
-0.754897
-0.166637
-0.304196
-1.47065
-1.58394
0.293695
0.401302
-0.718909
-0.974082
-0.932649
-0.419113
-1.55879
-0.686225
-0.868162
-1.10428
-1.0061
0.0808897
0.337075
-0.321954
-0.199948
-0.0180074
-0.836057
-1.03918
-0.282007
-0.776617
-0.793766
-0.239525
0.76099
0.89467
1.02779
0.272351
1.53582
1.50897
2.29964
2.44671
2.60979
0.718401
0.989423
-0.169886
-0.864784
-0.680736
0.241446
0.420717
0.989362
1.03101
0.283491
-0.306426
0.73372
1.28554
1.48287
1.51512
0.663527
-0.425627
-0.729359
-0.910988
-1.96863
-0.699206
-0.0975912
-1.41466
-1.81076
-1.37248
0.115384
-0.651548
-0.373536
-0.131843
-0.527775
0.27208
-0.833366
-0.112839
0.118345
-0.740879
-0.183149
-0.84205
-0.707145
-0.524464
-1.13424
-1.92978
-0.205072
1.16099
0.92263
1.16349
1.13253
1.2446
1.33831
1.71411
1.56064
0.928344
0.524818
0.702371
-0.114344
-0.552072
-0.984625
0.0838709
0.434665
1.11506
1.07758
0.147233
0.784554
1.67036
1.2626
1.41325
0.773325
0.817235
0.338092
-1.17386
-1.29704
-1.35305
-0.670501
0.255769
-0.24085
-1.16636
0.191863
-0.228583
0.240786
0.1199
0.501255
0.395939
0.80085
-0.177961
-0.0780072
-0.513997
-1.05141
-0.54597
-0.71458
-0.541363
-1.13077
-1.3846
-1.41273
-0.645723
1.01969
1.00521
0.763399
1.59827
1.19456
1.25056
1.36242
0.409354
0.512374
0.54626
0.0494549
0.0255772
0.0814715
-0.435436
0.516531
0.929729
1.12626
1.12485
0.721098
-0.0226123
0.912118
1.44005
1.10904
0.819874
1.08651
0.885027
-0.693788
-1.4727
-2.26435
0.357375
0.860201
0.558515
-0.146317
-0.400914
0.386725
0.683687
0.481548
0.43918
-0.171808
-0.496558
0.10028
0.0284065
-0.807504
-1.37326
-1.81205
-1.35754
-0.928129
-1.21981
-1.53333
-0.776804
0.162105
0.444077
0.369824
-0.231494
0.0502376
-0.134791
0.30622
0.334587
-0.0547223
-0.649275
-0.347351
0.555048
0.561445
1.12699
0.554882
1.58185
1.51206
1.58918
1.16345
0.44673
0.501675
1.10813
1.58282
1.30468
1.47915
1.63332
0.808712
-0.564396
-1.04387
-1.73346
1.26857
0.83578
0.542696
0.0125259
0.916634
0.577071
1.19911
0.947039
1.29184
0.354239
0.114157
-0.240085
-0.07694
-0.430915
-1.01843
-1.22707
-0.478496
-0.47629
-0.865161
-1.05224
-0.504236
-0.543545
-1.16844
0.101287
-0.12114
-0.712512
-0.155757
0.513298
0.222588
-0.555098
-1.08847
-0.0371109
-0.121636
0.487605
0.726427
0.700334
1.22846
1.41704
1.47898
1.65467
1.77001
1.26993
1.69149
1.453
1.17427
0.0797789
0.0435081
0.278217
-0.67382
-1.54726
-0.552911
1.33808
0.68753
0.592146
-0.268537
0.630577
0.519879
0.709169
0.764597
1.02744
0.296038
0.387896
0.385359
-0.231603
-0.635186
-0.121166
-0.284748
-0.453912
-0.455822
-0.599272
-0.370044
-0.94135
-1.04421
-0.92585
-0.815227
-0.36196
-0.0706062
0.0706932
-0.482574
-0.574841
-0.215541
0.0200656
0.794831
0.103633
0.287717
0.254497
0.59124
0.989269
1.55735
1.86207
1.93204
2.21238
2.28074
2.26595
1.85661
1.07708
0.511066
0.036549
0.0216186
-0.528102
-1.31746
-0.824272
-0.0111862
-0.356281
0.161747
-0.284729
-0.337702
-0.387217
-0.00271433
0.331814
0.381127
0.594336
0.40045
-0.206173
0.337399
0.355391
-0.449483
-1.01802
-0.585756
-0.796881
-1.09266
-1.17158
-1.29085
-1.54841
-1.87977
-1.94808
-1.37092
-0.848358
0.136172
-0.339114
-0.628045
0.105211
0.487561
0.0452959
-0.165856
0.441602
0.709017
0.733437
0.94628
1.66129
1.34487
2.23842
1.90886
2.23069
2.21053
2.21167
1.45756
0.318049
0.299255