# vtk DataFile Version 3.0
vtk output
ASCII
DATASET UNSTRUCTURED_GRID
POINTS      16224 float
 0.00000000e+00  0.00000000e+00  0.00000000e+00
 1.00000000e+01  0.00000000e+00  0.00000000e+00
 2.00000000e+01  0.00000000e+00  0.00000000e+00
 3.00000000e+01  0.00000000e+00  0.00000000e+00
 4.00000000e+01  0.00000000e+00  0.00000000e+00
 5.00000000e+01  0.00000000e+00  0.00000000e+00
 6.00000000e+01  0.00000000e+00  0.00000000e+00
 7.00000000e+01  0.00000000e+00  0.00000000e+00
 8.00000000e+01  0.00000000e+00  0.00000000e+00
 9.00000000e+01  0.00000000e+00  0.00000000e+00
 1.00000000e+02  0.00000000e+00  0.00000000e+00
 1.10000000e+02  0.00000000e+00  0.00000000e+00
 1.20000000e+02  0.00000000e+00  0.00000000e+00
 1.30000000e+02  0.00000000e+00  0.00000000e+00
 1.40000000e+02  0.00000000e+00  0.00000000e+00
 1.50000000e+02  0.00000000e+00  0.00000000e+00
 1.60000000e+02  0.00000000e+00  0.00000000e+00
 1.70000000e+02  0.00000000e+00  0.00000000e+00
 1.80000000e+02  0.00000000e+00  0.00000000e+00
 1.90000000e+02  0.00000000e+00  0.00000000e+00
 2.00000000e+02  0.00000000e+00  0.00000000e+00
 2.10000000e+02  0.00000000e+00  0.00000000e+00
 2.20000000e+02  0.00000000e+00  0.00000000e+00
 2.30000000e+02  0.00000000e+00  0.00000000e+00
 2.40000000e+02  0.00000000e+00  0.00000000e+00
 2.50000000e+02  0.00000000e+00  0.00000000e+00
 2.60000000e+02  0.00000000e+00  0.00000000e+00
 2.70000000e+02  0.00000000e+00  0.00000000e+00
 2.80000000e+02  0.00000000e+00  0.00000000e+00
 2.90000000e+02  0.00000000e+00  0.00000000e+00
 3.00000000e+02  0.00000000e+00  0.00000000e+00
 3.10000000e+02  0.00000000e+00  0.00000000e+00
 3.20000000e+02  0.00000000e+00  0.00000000e+00
 3.30000000e+02  0.00000000e+00  0.00000000e+00
 3.40000000e+02  0.00000000e+00  0.00000000e+00
 3.50000000e+02  0.00000000e+00  0.00000000e+00
 3.60000000e+02  0.00000000e+00  0.00000000e+00
 3.70000000e+02  0.00000000e+00  0.00000000e+00
 3.80000000e+02  0.00000000e+00  0.00000000e+00
 3.90000000e+02  0.00000000e+00  0.00000000e+00
 4.00000000e+02  0.00000000e+00  0.00000000e+00
 4.10000000e+02  0.00000000e+00  0.00000000e+00
 4.20000000e+02  0.00000000e+00  0.00000000e+00
 4.30000000e+02  0.00000000e+00  0.00000000e+00
 4.40000000e+02  0.00000000e+00  0.00000000e+00
 4.50000000e+02  0.00000000e+00  0.00000000e+00
 4.60000000e+02  0.00000000e+00  0.00000000e+00
 4.70000000e+02  0.00000000e+00  0.00000000e+00
 4.80000000e+02  0.00000000e+00  0.00000000e+00
 4.90000000e+02  0.00000000e+00  0.00000000e+00
 5.00000000e+02  0.00000000e+00  0.00000000e+00
 5.10000000e+02  0.00000000e+00  0.00000000e+00
 0.00000000e+00  1.00000000e+01  0.00000000e+00
 1.00000000e+01  1.00000000e+01  0.00000000e+00
 2.00000000e+01  1.00000000e+01  0.00000000e+00
 3.00000000e+01  1.00000000e+01  0.00000000e+00
 4.00000000e+01  1.00000000e+01  0.00000000e+00
 5.00000000e+01  1.00000000e+01  0.00000000e+00
 6.00000000e+01  1.00000000e+01  0.00000000e+00
 7.00000000e+01  1.00000000e+01  0.00000000e+00
 8.00000000e+01  1.00000000e+01  0.00000000e+00
 9.00000000e+01  1.00000000e+01  0.00000000e+00
 1.00000000e+02  1.00000000e+01  0.00000000e+00
 1.10000000e+02  1.00000000e+01  0.00000000e+00
 1.20000000e+02  1.00000000e+01  0.00000000e+00
 1.30000000e+02  1.00000000e+01  0.00000000e+00
 1.40000000e+02  1.00000000e+01  0.00000000e+00
 1.50000000e+02  1.00000000e+01  0.00000000e+00
 1.60000000e+02  1.00000000e+01  0.00000000e+00
 1.70000000e+02  1.00000000e+01  0.00000000e+00
 1.80000000e+02  1.00000000e+01  0.00000000e+00
 1.90000000e+02  1.00000000e+01  0.00000000e+00
 2.00000000e+02  1.00000000e+01  0.00000000e+00
 2.10000000e+02  1.00000000e+01  0.00000000e+00
 2.20000000e+02  1.00000000e+01  0.00000000e+00
 2.30000000e+02  1.00000000e+01  0.00000000e+00
 2.40000000e+02  1.00000000e+01  0.00000000e+00
 2.50000000e+02  1.00000000e+01  0.00000000e+00
 2.60000000e+02  1.00000000e+01  0.00000000e+00
 2.70000000e+02  1.00000000e+01  0.00000000e+00
 2.80000000e+02  1.00000000e+01  0.00000000e+00
 2.90000000e+02  1.00000000e+01  0.00000000e+00
 3.00000000e+02  1.00000000e+01  0.00000000e+00
 3.10000000e+02  1.00000000e+01  0.00000000e+00
 3.20000000e+02  1.00000000e+01  0.00000000e+00
 3.30000000e+02  1.00000000e+01  0.00000000e+00
 3.40000000e+02  1.00000000e+01  0.00000000e+00
 3.50000000e+02  1.00000000e+01  0.00000000e+00
 3.60000000e+02  1.00000000e+01  0.00000000e+00
 3.70000000e+02  1.00000000e+01  0.00000000e+00
 3.80000000e+02  1.00000000e+01  0.00000000e+00
 3.90000000e+02  1.00000000e+01  0.00000000e+00
 4.00000000e+02  1.00000000e+01  0.00000000e+00
 4.10000000e+02  1.00000000e+01  0.00000000e+00
 4.20000000e+02  1.00000000e+01  0.00000000e+00
 4.30000000e+02  1.00000000e+01  0.00000000e+00
 4.40000000e+02  1.00000000e+01  0.00000000e+00
 4.50000000e+02  1.00000000e+01  0.00000000e+00
 4.60000000e+02  1.00000000e+01  0.00000000e+00
 4.70000000e+02  1.00000000e+01  0.00000000e+00
 4.80000000e+02  1.00000000e+01  0.00000000e+00
 4.90000000e+02  1.00000000e+01  0.00000000e+00
 5.00000000e+02  1.00000000e+01  0.00000000e+00
 5.10000000e+02  1.00000000e+01  0.00000000e+00
 0.00000000e+00  2.00000000e+01  0.00000000e+00
 1.00000000e+01  2.00000000e+01  0.00000000e+00
 2.00000000e+01  2.00000000e+01  0.00000000e+00
 3.00000000e+01  2.00000000e+01  0.00000000e+00
 4.00000000e+01  2.00000000e+01  0.00000000e+00
 5.00000000e+01  2.00000000e+01  0.00000000e+00
 6.00000000e+01  2.00000000e+01  0.00000000e+00
 7.00000000e+01  2.00000000e+01  0.00000000e+00
 8.00000000e+01  2.00000000e+01  0.00000000e+00
 9.00000000e+01  2.00000000e+01  0.00000000e+00
 1.00000000e+02  2.00000000e+01  0.00000000e+00
 1.10000000e+02  2.00000000e+01  0.00000000e+00
 1.20000000e+02  2.00000000e+01  0.00000000e+00
 1.30000000e+02  2.00000000e+01  0.00000000e+00
 1.40000000e+02  2.00000000e+01  0.00000000e+00
 1.50000000e+02  2.00000000e+01  0.00000000e+00
 1.60000000e+02  2.00000000e+01  0.00000000e+00
 1.70000000e+02  2.00000000e+01  0.00000000e+00
 1.80000000e+02  2.00000000e+01  0.00000000e+00
 1.90000000e+02  2.00000000e+01  0.00000000e+00
 2.00000000e+02  2.00000000e+01  0.00000000e+00
 2.10000000e+02  2.00000000e+01  0.00000000e+00
 2.20000000e+02  2.00000000e+01  0.00000000e+00
 2.30000000e+02  2.00000000e+01  0.00000000e+00
 2.40000000e+02  2.00000000e+01  0.00000000e+00
 2.50000000e+02  2.00000000e+01  0.00000000e+00
 2.60000000e+02  2.00000000e+01  0.00000000e+00
 2.70000000e+02  2.00000000e+01  0.00000000e+00
 2.80000000e+02  2.00000000e+01  0.00000000e+00
 2.90000000e+02  2.00000000e+01  0.00000000e+00
 3.00000000e+02  2.00000000e+01  0.00000000e+00
 3.10000000e+02  2.00000000e+01  0.00000000e+00
 3.20000000e+02  2.00000000e+01  0.00000000e+00
 3.30000000e+02  2.00000000e+01  0.00000000e+00
 3.40000000e+02  2.00000000e+01  0.00000000e+00
 3.50000000e+02  2.00000000e+01  0.00000000e+00
 3.60000000e+02  2.00000000e+01  0.00000000e+00
 3.70000000e+02  2.00000000e+01  0.00000000e+00
 3.80000000e+02  2.00000000e+01  0.00000000e+00
 3.90000000e+02  2.00000000e+01  0.00000000e+00
 4.00000000e+02  2.00000000e+01  0.00000000e+00
 4.10000000e+02  2.00000000e+01  0.00000000e+00
 4.20000000e+02  2.00000000e+01  0.00000000e+00
 4.30000000e+02  2.00000000e+01  0.00000000e+00
 4.40000000e+02  2.00000000e+01  0.00000000e+00
 4.50000000e+02  2.00000000e+01  0.00000000e+00
 4.60000000e+02  2.00000000e+01  0.00000000e+00
 4.70000000e+02  2.00000000e+01  0.00000000e+00
 4.80000000e+02  2.00000000e+01  0.00000000e+00
 4.90000000e+02  2.00000000e+01  0.00000000e+00
 5.00000000e+02  2.00000000e+01  0.00000000e+00
 5.10000000e+02  2.00000000e+01  0.00000000e+00
 0.00000000e+00  3.00000000e+01  0.00000000e+00
 1.00000000e+01  3.00000000e+01  0.00000000e+00
 2.00000000e+01  3.00000000e+01  0.00000000e+00
 3.00000000e+01  3.00000000e+01  0.00000000e+00
 4.00000000e+01  3.00000000e+01  0.00000000e+00
 5.00000000e+01  3.00000000e+01  0.00000000e+00
 6.00000000e+01  3.00000000e+01  0.00000000e+00
 7.00000000e+01  3.00000000e+01  0.00000000e+00
 8.00000000e+01  3.00000000e+01  0.00000000e+00
 9.00000000e+01  3.00000000e+01  0.00000000e+00
 1.00000000e+02  3.00000000e+01  0.00000000e+00
 1.10000000e+02  3.00000000e+01  0.00000000e+00
 1.20000000e+02  3.00000000e+01  0.00000000e+00
 1.30000000e+02  3.00000000e+01  0.00000000e+00
 1.40000000e+02  3.00000000e+01  0.00000000e+00
 1.50000000e+02  3.00000000e+01  0.00000000e+00
 1.60000000e+02  3.00000000e+01  0.00000000e+00
 1.70000000e+02  3.00000000e+01  0.00000000e+00
 1.80000000e+02  3.00000000e+01  0.00000000e+00
 1.90000000e+02  3.00000000e+01  0.00000000e+00
 2.00000000e+02  3.00000000e+01  0.00000000e+00
 2.10000000e+02  3.00000000e+01  0.00000000e+00
 2.20000000e+02  3.00000000e+01  0.00000000e+00
 2.30000000e+02  3.00000000e+01  0.00000000e+00
 2.40000000e+02  3.00000000e+01  0.00000000e+00
 2.50000000e+02  3.00000000e+01  0.00000000e+00
 2.60000000e+02  3.00000000e+01  0.00000000e+00
 2.70000000e+02  3.00000000e+01  0.00000000e+00
 2.80000000e+02  3.00000000e+01  0.00000000e+00
 2.90000000e+02  3.00000000e+01  0.00000000e+00
 3.00000000e+02  3.00000000e+01  0.00000000e+00
 3.10000000e+02  3.00000000e+01  0.00000000e+00
 3.20000000e+02  3.00000000e+01  0.00000000e+00
 3.30000000e+02  3.00000000e+01  0.00000000e+00
 3.40000000e+02  3.00000000e+01  0.00000000e+00
 3.50000000e+02  3.00000000e+01  0.00000000e+00
 3.60000000e+02  3.00000000e+01  0.00000000e+00
 3.70000000e+02  3.00000000e+01  0.00000000e+00
 3.80000000e+02  3.00000000e+01  0.00000000e+00
 3.90000000e+02  3.00000000e+01  0.00000000e+00
 4.00000000e+02  3.00000000e+01  0.00000000e+00
 4.10000000e+02  3.00000000e+01  0.00000000e+00
 4.20000000e+02  3.00000000e+01  0.00000000e+00
 4.30000000e+02  3.00000000e+01  0.00000000e+00
 4.40000000e+02  3.00000000e+01  0.00000000e+00
 4.50000000e+02  3.00000000e+01  0.00000000e+00
 4.60000000e+02  3.00000000e+01  0.00000000e+00
 4.70000000e+02  3.00000000e+01  0.00000000e+00
 4.80000000e+02  3.00000000e+01  0.00000000e+00
 4.90000000e+02  3.00000000e+01  0.00000000e+00
[...]
CELL_DATA      13005
SCALARS log(K) double
LOOKUP_TABLE default
0.638118
0.203946
-0.064378
0.0287989
0.144116
0.176445
-0.495897
-1.24429
-1.04598
-0.00728911
-1.1739
-0.214485
-1.05827
-0.90532
-0.868876
0.0248353
1.14663
1.09166
0.836263
1.73963
0.993182
1.57143
1.44803
2.26899
2.08967
1.43027
1.8424
1.88979
0.753133
0.636527
1.29808
0.315921
-0.200399
-0.447209
-0.207098
-0.481547
-0.0341241
-0.680339
0.190646
0.144776
-0.367341
-1.4054
-0.659545
-0.620433
0.170987
0.554784
-0.352169
-0.16678
0.25831
0.420883
0.997773
0.307422
0.352611
-0.647643
-0.619496
0.133095
0.0881545
-0.615089
-1.22878
-1.00944
-1.23074
-1.11893
-0.171105
-0.302549
-0.8516
-1.34865
-0.407636
-0.102091
0.285297
0.530705
0.798934
1.40129
1.28535
1.57676
1.82313
1.36696
1.38435
1.76716
1.61883
1.58495
1.09924
1.6251
0.0675797
-0.399792
-0.554287
0.324295
0.308302
0.310259
-0.36697
-0.656361
-0.020843
-0.19206
-0.0662365
0.341567
-0.711082
0.151442
0.128443
0.156406
0.33218
0.372354
0.509999
0.782377
1.19053
0.227744
-0.0141042
-0.368733
-0.693324
-0.479273
0.131615
-0.979833
-1.14348
-1.54241
-1.73619
-0.976587
-0.397494
-0.64043
-1.87249
-0.678849
-0.204708
0.156042
0.511463
-0.04869
1.6203
0.864374
1.51722
1.58356
1.99253
1.61993
1.96681
1.4759
0.875666
1.24761
1.80889
0.624214
0.675624
0.835153
0.399681
0.983434
1.07448
0.267612
0.20551
-0.23405
0.733239
0.501225
-0.0488381
-0.177954
-0.0583183
0.0100761
-0.211637
-0.185759
-0.0493626
0.291735
0.222521
0.663567
1.01691
0.0583236
-0.355494
-1.37417
-1.03409
-0.984158
-0.315496
-1.20717
-1.78728
-1.5713
-0.910783
-0.374443
-1.23281
-2.14891
-0.806744
-0.254751
0.496611
0.913241
0.831655
1.24125
1.15553
1.48359
1.85641
2.19848
2.12254
2.41812
2.62509
2.12535
1.227
0.491697
0.111526
0.681272
0.525451
0.0299156
-0.0945737
0.781671
0.701995
0.238434
0.129794
0.242798
-0.497093
0.156857
-0.0765943
0.206762
-1.03119
-0.535234
-0.205713
1.08359
0.580928
0.426504
0.570335
1.13674
0.637269
0.584792
-0.0303633
-0.0203069
-0.511655
-0.822058
-1.48662
-1.44019
-1.61858
-1.07541
-0.797112
-1.53632
-2.89662
-1.36456
-0.764934
0.220654
1.0638
0.374917
1.11898
0.749528
0.650496
1.54332
2.38796
2.51812
2.56568
2.87005
1.9388
1.56555
0.779397
0.259112
-0.656742
-0.322234
0.350285
-0.610836
-0.265785
-0.212542
0.185601
0.0894198
-0.151723
-0.511544
-0.745155
0.304367
-0.55588
-0.972775
-0.226392
0.308219
0.433851
1.20918
0.557378
1.82946
1.8132
1.89649
1.73796
0.63742
1.15648
0.883925
0.0618939
-0.805065
-1.01691
-1.13927
-0.837809
-1.16821
-1.98658
-1.53521
-1.24381
-1.44021
-1.10289
-1.11932
0.0272792
0.994124
0.561335
0.0979514
0.501638
1.81153
2.49819
3.18218
2.93058
1.79599
0.774316
0.354054
0.33297
-0.00927728
-0.290968
0.356228
0.511934
-0.591701
-0.647226
-0.806396
-1.15319
-0.668737
-0.266121
-1.27813
-0.732438
-1.91809
-1.80163
-1.14357
-1.13937
-0.32132
1.10106
1.24657
1.82978
2.19984
2.24238
2.29473
1.45004
0.952271
0.266811
0.142401
-0.605895
-0.409352
-0.763116
-0.373974
-2.03514
-2.61758
-2.19844
-1.8456
-1.67976
-1.00166
-1.29853
-0.221742
-0.0652119
-0.149864
0.191638
0.82591
1.23935
2.09481
2.00949
1.36244
0.807005
0.711323
-0.301511
-0.434513
-0.515932
-1.09972
-1.08458
-0.62722
-0.507052
-1.23032
-1.19557
-0.673555
-1.38089
-0.708053
-0.836549
-1.59545
-1.15723
-1.93068
-1.68931
-1.93693
-0.320675
0.77015
1.4484
2.18719
2.49558
2.22187
2.69522
1.97114
0.770667
0.13773
-0.614582
-1.27038
-1.16845
-0.365205
-0.904724
-1.38089
-1.51725
-1.94494
-1.31318
-2.00413
-1.84873
-1.40242
-0.536496
-0.545137
0.406915
0.294398
0.183204
0.919515
1.82434
1.36322
0.288505
0.429823
0.284722
0.123214
-0.258969
-0.983294
-0.608038
-0.51662
-1.08944
-0.874956
-0.802417
-1.47253
-2.07472
-2.06327
-1.15931
-0.991094
-0.889415
-0.95305
-2.09702
-1.44075
-0.961134
0.320234
0.956874
0.895423
1.98115
2.3128
3.12084
1.86453
1.77927
0.695941
-0.270172
-1.65332
-0.786206
-0.898228
-0.509567
-1.63639
-1.31038
-1.56229
-1.61928
-1.51736
-2.00409
-2.83176
-1.70406
-1.48664
-0.236811
-0.120386
0.492326
0.000364614
0.644168
0.809208
1.86672
0.521015
0.943284
0.144884
-0.0268643
-1.08381
-0.811216
-0.652919
-0.803014
-1.10867
-0.727113
-0.824055
-1.49615
-2.42687
-2.17648
-1.40343
-1.52075
-1.15934
-1.54369
-2.68275
-1.86597
-0.514598
1.14496
1.28364
0.508353
1.53749
1.93857
2.21937
2.1235
1.52586
-0.323382
-0.821118
-0.765298
-1.11712
-0.588144
-0.782739
-0.490044
-0.475378
-1.21111
-1.67659
-0.912382
-1.63428
-2.13957
-2.19491
-0.782277
-0.465383
-1.32631
-0.518757
-0.503022
0.758081
0.813973
0.603825
1.14703
0.665201
1.4786
0.310047
-0.919621
-1.30487
-1.46441
-0.856477
-0.530267
-0.549368
-0.330155
-1.52944
-2.47259
-2.51029
-1.63715
-1.55148
-1.42096
-1.17892
-1.56352
-1.54667
-0.172405
0.514024
1.01586
-0.242011
1.78174
1.2968
1.88488
1.25872
0.910566
-0.030544
0.347686
-0.979939
-0.364093
-0.358982
-0.913271
-0.585984
-0.897383
-0.730638
-0.122457
-1.70938
-1.97197
-2.49475
-2.57203
-1.58904
-1.21801
-1.6427
-0.620832
-0.521765
-0.396942
0.591307
-0.366433
-0.52091
0.0358199
0.630071
-0.08397
-0.202253
-0.843515
-0.816013
-1.06294
-0.567573
-0.386881
0.210108
-0.752943
-2.22563
-2.3833
-1.80533
-1.28717
-1.57717
-1.63637
-0.53725
-0.380104
-0.341577
0.408542
1.23049
0.272733
0.207307
1.11912
1.8111
1.01435
0.44256
-0.332258
-0.642979
-1.57794
-1.01421
-0.490686
-1.04251
-0.397382
-0.133504
0.456108
-0.749208
-2.362
-2.38224
-2.63042
-2.08368
-1.2409
-0.7574
-1.03429
-0.76354
-0.21533
-0.838262
-1.02942
-0.596641
-0.56502
-0.101127
-0.0536447
0.0732443
0.82011
-0.376872
-0.637995
-1.13985
-0.0599984
-0.0275864
-0.445378
-0.935042
-1.77985
-2.05128
-2.17069
-1.69448
-1.46073
-2.3018
-1.37915
-1.18768
-0.276518
-0.455973
0.120064
0.912357
0.117154
1.03244
1.19381
0.578347
0.713683
-0.333093
-1.06517
-1.33776
-1.14653
-0.538037
0.249034
-0.759043
0.58231
0.672366
-0.0999662
-1.618
-2.19012
-2.43768
-1.85085
-1.10484
-0.715369
-0.427094
-0.293128
-0.868589
-1.1359
-1.35862
-0.933095
-0.726398
-1.22069
-0.187197
0.0597886
0.211665
-0.433142
-0.413716
-0.260511
0.00147938
0.0356427
-0.200964
-0.554057
-1.30984
-1.41141
-1.48769
-2.36252
-1.77015
-2.36557
-1.95385
-1.12236
-0.173483
-0.120229
0.642771
1.50896
-0.15057
0.63915
0.432679
0.474947
0.721474
0.127294
-0.393734
-1.26764
-0.546813
-1.12797
-1.08083
-0.17996
0.871231
0.242816
0.25819
-0.273704
-1.08945
-2.00936
-1.62401
-0.789326
-0.14004
0.458354
1.0097
-0.405121
-0.569522
-0.512798
-0.891779
-1.00514
-1.6358
0.0384299
-0.525007
-1.53184
-1.53501
-1.0544
-0.166385
-0.826277
-0.861983
-0.54481
-0.540713
-0.845136
-0.732494
-1.41761
-1.88081
-1.11436
-1.19525
-1.94289
-1.55695
-1.07491
-0.220616
0.357033
1.63219
-0.678947
0.660659
-0.0544125
0.121449
0.807949
0.62854
-0.982918
-0.532533
-1.10549
-0.481899
-1.7423
-0.544595
1.28898
1.30685
0.50873
-0.0148881
-0.131668
-0.385672
-0.628054
-0.497568
-0.0133053
0.290936
0.232251
-0.00899235
-1.76473
-0.692758
-0.368077
-1.61989
-1.11375
-1.42637
-1.06634
-0.885954
-1.48374
-0.940853
-0.847277
-0.748848
-1.44988
-0.6655
-0.373745
-0.758971
-0.500095
-0.936611
-1.82185
-0.811896
-0.874412
-1.92668
-0.752178
-0.558553
-0.0727574
0.31053
0.786327
-0.555372
-1.34234
-0.816239
0.185355
-0.123047
-0.240874
-0.697646
-0.841369
-1.15417
-0.799324
-0.239798
0.169115
1.04054
1.47379
0.577374
0.101802
-0.188664
0.207941
0.229873
0.551972
0.622138
0.463258
-0.0845036
-0.0881065
-0.10464
-0.0875596
-0.777807
-0.69141
-0.320788
-0.792332
-1.81626
-1.1696
-1.45915
-1.18619
-0.204201
-0.148111
0.285618
0.182154
-0.740584
-0.948825
-0.914492
-0.558318
-0.860314
-0.555275
-0.71316
-1.85096
-0.955114
-0.715213
-0.302638
0.560674
0.757845
-0.425044
-1.67863
-0.533674
-0.0315515
0.317575
1.00167
0.306885
-0.210971
-0.399455
0.213356
0.588088
0.467241
1.32329
0.673992
1.26985
0.403463
1.43029
1.59821
0.964898
-0.117513
0.877407
1.0094
0.572684
0.657765
0.226915
-0.06603
0.630376
-0.0712009
-0.267065
-0.83652
-0.737454
-0.820739
-1.27686
-1.50055
-1.48227
-0.699382
-0.152424
-0.320905
-0.806783
-0.782511
-0.699991
-0.883644
-0.254572
-0.48814
-0.362848
-0.727138
-0.585529
-0.36148
-0.766735
-0.211258
-0.503162
-0.854982
-1.43819
0.0978452
-0.0826092
0.733944
0.878837
-0.427224
0.324283
-0.17196
0.222877
0.209272
0.274766
0.240451
1.44964
1.12002
1.21038
2.22569
1.44356
0.521999
1.9156
0.963345
1.76018
0.220376
-0.0482453
0.271348
0.956248
0.440259
0.11068
0.769921
-0.490163
-1.616
-1.29132
-0.962299
-0.377788
-0.523814
-0.358252
-0.479397
-0.513897
-0.0886858
-0.510028
-0.814304
-1.0652
-0.639376
-1.07889
-0.895939
-0.402665
0.11081
-0.121457
-1.20678
-0.64117
-0.29901
-0.746355
-0.71213
-0.683941
0.0689387
0.227191
0.772446
0.587205
-0.661592
-0.605719
0.381749
0.254689
0.443246
-0.366753
0.785108
0.37726
1.54632
2.45134
1.38214
0.650528
1.3682
0.98844
0.787322
-0.144168
-0.387002
0.246645
-0.260245
-0.364264
-0.172431
-0.12874
-0.342939
-0.802391
-0.690108
-0.447647
0.327085
-0.473523
0.731424
0.00500828
-0.253872
0.00924821
-0.616762
-0.931142
-0.532409
-0.952005
-0.639073
-0.366582
-0.498612
-0.40247
-0.0791105
0.0484738
-0.132095
-0.130713
-0.142756
-0.0150045
0.216192
0.214685
-0.815856
-0.513892
-0.32599
-0.595275
0.0150395
0.376296
-0.0234188
-1.02199
-0.679001
0.00797786
0.379247
1.78032
1.70809
1.18978
1.17851
1.07641
0.438411
-0.0389807
0.129072
-0.0129956
-0.0470007
-0.00823463
-0.22217
-0.42651
-0.821513
-0.416762
0.25356
-0.356604
0.640476
-0.0392259
-0.144535
0.329863
0.32121
0.348262
-0.0377699
-1.1708
-1.03345
-1.05133
-0.049937
-0.282703
0.233733
-0.382166
0.121077
0.131871
0.133924
-0.151458
-0.121227
-0.462359
0.289607
0.326187
-0.0399446
-1.31497
-0.768129
-0.109431
-0.259269
0.20963
0.63985
0.141019
-0.138149
-1.02326
-0.541481
-0.638669
1.05594
1.00276
0.513719
1.17988
0.784288
0.391439
-0.350074
-0.476435
0.137927
0.222764
0.477349
0.159241
0.317914
-0.559904
-0.846287
0.154613
0.548681
0.671526
0.552387
0.481338
-0.0383852
-0.238686
-0.0834229
0.199193
-0.216437
-0.54464
-0.110689
0.201546
0.874899
0.921012
0.572877
0.187881
-0.400379
-0.386651
0.469898
0.176173
-0.00843539
-0.138934
0.749633
-0.0491186
-0.847889
-0.25543
-0.272435
0.0343255
0.931486
0.614
0.0895732
0.0758055
-0.506206
-1.05832
-0.148353
-0.519056
0.308244
1.90414
0.788289
-0.37029
-0.321409
-0.614153
0.102038
-0.353046
0.332546
1.04921
-0.115811
0.146427
-0.576993
-0.626636
0.32196
0.555453
0.645813
0.522122
0.179966
-0.0977405
-0.706935
-0.962148
-0.960825
-0.44968
-0.604714
-0.41911
-0.219467
0.667132
0.471357
-0.771854
-0.417783
-1.10554
-0.491275
-0.248959
-0.402784
0.184777
-0.685871
-0.180118
-0.523649
0.327282
0.348908
-0.237838
-0.835002
0.366999
0.0431112
0.345206
0.0100029
0.131656
-0.0934804
0.669996
0.144539
0.73095
1.47977
1.34256
0.638729
-0.545062
0.577609
0.111119
-0.147211
0.56147
0.382389
-0.0356332
0.104222
0.289241
1.11577
2.09848
2.18527
1.61952
0.777865
0.432914
-0.308889
0.286711
0.194566
-0.120277
-0.994697
-0.679794
-0.220179
1.00852
0.485243
0.783056
0.446172
-1.05844
-1.38893
-0.448709
-0.068818
0.000101602
-0.0179286
0.476657
0.575682
0.299124
-0.396917
0.0648758
-0.612486
0.030547
0.327203
0.441928
0.297887
0.254128
0.199371
-0.208457
-0.0416329
0.648109
0.745583
0.505991
0.742756
0.313138
-0.310077
0.256578
0.762984
0.020825
-0.0381081
0.706398
0.0410386
0.389934
0.580319
1.68633
2.0427
1.70336
1.57233
1.04394
0.656534
0.300844
0.257578
-0.0496687
-0.114174
-1.16039
-0.591947
-0.450862
0.316633
0.2874
1.36385
0.818592
-0.350252
-0.722107
-0.872473
-0.513355
-0.526089
-0.189265
-0.234452
1.15535
1.12161
0.27218
-0.032033
-1.04293
0.0721531
0.182661
0.909503
0.587715
0.341393
-0.328866
-1.44166
0.412153
0.675304
0.864432
0.403471
1.07278
0.185187
-0.273525
0.217301
1.05865
0.569651
0.577541
1.53543
1.27407
1.80149
1.14722
1.74658
1.51237
1.05588
0.704544
1.07198
0.665929
-0.087699
0.287267
0.137133
-0.684036
-0.951903
-0.584094
-0.694277
-0.594854
-0.578633
0.430262
-0.419565
-0.457523
-1.12545
-1.35237
-1.27901
-0.542731
0.0720593
0.221622
1.51462
1.39454
0.771498
-0.0683868
0.582998
0.470278
0.145108
-0.0683561
-0.654053
-0.227692
-1.47117
-0.0749852
0.793684
1.20711
0.86786
0.495467
0.920184
0.81156
-0.121068
0.702342
1.05098
0.537678
0.80698
1.60867
1.89638
2.5114
2.42467
1.78136
1.25556
0.581643
1.17897
0.654908
-0.0448503
0.303203
0.284121
-0.385616
-0.198212
-0.129519
0.255667
-0.762219
-0.513681
-0.38343
0.19032
-0.154511
-0.763996
-1.08082
-1.77623
-1.46308
-1.6407
0.435243
0.953921
1.23728
1.05018
-0.494997
-0.149434
0.195979
-0.548472
0.093099
-0.241535
-1.44187
-0.738211
-0.251298
-0.646946
0.164022
0.427895
0.800198
0.613785
0.619173
0.46395
0.142295
0.771678
1.17448
0.711891
0.542088
2.45549
3.26017
2.51814
1.74518
1.04611
0.604644
0.99149
1.01343
1.03584
0.801431
0.355143
0.282307
-0.14509
0.150402
-0.454581
1.00746
0.148492
0.519246
0.25188
0.177024
0.121536
0.243409
-0.435601
-0.934828
-1.31343
-2.09649
-0.338702
0.0243222
0.0766175
-0.215585
-0.244032
-0.142964
-0.350362
-0.627114
-0.68005
-0.741993
-0.686746
-0.724718
-0.171891
-0.249834
0.88556
0.41246
-0.0357719
0.213235
0.196176
0.513383
0.32811
0.0214153
0.232659
0.637742
1.20989
1.95307
2.53176
1.79904
1.32532
0.579721
-0.00777791
0.40013
0.872793
1.25973
0.82043
0.55475
0.0372823
0.376185
1.30957
-0.0888799
0.975583
0.615489
1.30204
0.649501
0.228019
-0.325198
0.142011
0.222768
-0.593951
-0.71839
-1.21193
-0.142456
-0.254949
0.110795
-0.609292
-1.00216
-0.940638
-1.34037
-1.11166
-0.718517
-1.40428
-0.834039
-0.831994
-0.783422
-0.134767
0.208263
0.634272
0.580367
0.403949
0.246427
0.534817
0.372262
-0.764513
-0.294266
0.246528
2.11451
1.99056
2.5813
2.14003
2.08682
1.29395
0.757979
0.657053
0.885777
0.901785
0.149933
0.60486
0.6987
1.04525
1.67351
0.605134
0.346108
0.619554
1.12954
0.583871
0.608341
0.410415
0.499071
-0.228508
-0.600356
-0.44675
-1.46786
-0.586206
0.815788
-0.342954
-1.13735
-1.08761
-1.53204
-1.94563
-1.4658
-1.01339
-1.36667
-1.24619
-1.36532
-0.446627
0.304004
-0.140929
0.0573101
0.44991
1.30746
0.532438
-0.378828
-0.075134
-0.142325
0.712685
0.698784
2.16667
2.50025
1.90564
0.917242
1.64452
1.34398
0.673468
0.786997
1.20019
0.767256
0.945701
2.07721
1.29155
1.50892
2.31347
1.83177
0.999322
1.0301
1.15032
0.738519
0.159041
-0.144672
-0.129644
-0.290947
-0.415323
-0.411784
-0.660689
0.239663
0.431587
-0.419669
-0.682881
-0.801986
-0.80967
-2.44786
-1.98723
-0.727029
-0.60777
-1.6002
-1.93687
-0.315813
-0.32597
-0.475216
0.792486
0.330282
1.49651
1.08009
0.153444
-0.149424
0.637328
0.252801
1.55921
2.48942
2.21799
1.8148
1.13578
1.15503
0.78228
1.3881
1.29661
0.99302
1.55269
1.70016
2.10352
2.67544
2.83813
3.09696
2.78653
1.10896
2.08449
1.6545
0.478167
-0.331743
-0.87411
-0.907408
-1.36138
-0.977038
-0.95854
-0.821002
0.532398
-0.0150171
-0.0759434
-0.0277239
-1.1869
-0.871238
-0.965513
-1.68861
-1.58442
-0.818672
-0.916306
-1.98589
-0.623481
0.2141
1.10287
0.83806
0.112137
0.890738
0.689162
0.939393
1.65951
0.945193
0.741936
1.21262
1.88696
1.68541
2.14952
0.590563
0.0638256
0.834826
1.07743
0.586856
1.30817
2.11339
2.40425
2.57321
2.91829
3.04668
2.95548
1.68144
2.24009
2.38626
1.40591
0.441188
-0.212529
-0.791569
-0.579153
-0.354393
-0.132567
-0.976193
-0.373481
-0.0530437
0.252044
0.158155
0.222162
-0.392153
-0.580135
-0.207512
0.205244
-1.28918
-0.416662
-0.357219
-0.581062
0.0947092
1.30083
0.826566
0.977702
0.6208
0.664497
0.469913
0.652801
1.83356
0.399177
1.14456
0.746776
0.796449
1.51759
1.86975
0.547099
-0.277022
0.858027
1.10032
1.17328
1.5683
1.612
2.79127
3.19607
3.4248
2.74
1.76196
1.39377
1.70096
2.00594
0.619151
1.03794
-0.312981
-0.409788
-1.37313
0.171091
0.100862
-0.244625
0.0782129
0.520749
-0.170375
0.176209
-0.41472
-0.515434
-0.338168
0.0216196
-0.114107
-0.155336
-0.01815
0.00990326
0.120534
0.37472
0.757204
1.63477
0.227896
0.445263
0.375275
0.0757302
1.27953
1.4056
0.887603
0.569271
1.34725
1.3792
1.67093
0.816577
0.958399
0.888561
0.723294
0.467639
0.833493
0.0355304
2.04103
2.23148
4.05788
3.58913
2.93048
1.99635
1.44129
0.957092
0.585735
0.172987
-0.060493
-1.59388
-0.561827
-1.03666
0.789744
0.122489
-0.175887
-0.265757
-0.265281
0.135135
-0.104433
0.0528148
0.115806
0.0241181
-0.313096
-0.0327285
-0.0299265
0.154947
-0.131205
0.181157
0.439586
0.19305
0.527729
0.544894
0.498284
-0.68364
-0.546897
1.13959
-0.0246553
0.773826
0.763762
0.264937
1.45754
1.25262
0.00247683
0.855058
1.03279
0.959925
1.79485
1.14254
0.484683
1.306
2.17425
3.17658
2.5729
2.90805
1.96591
1.50157
0.735582
0.214282
0.492509
-0.223434
-0.688265
-0.283885
-1.01501
-0.417162
0.169042
-0.270014
0.218356
-0.42406
-0.743398
0.254131
0.375746
-0.044982
-0.449933
-0.130641
-0.691536
-0.310838
-0.33013
-0.943705
0.0777582
0.140296
0.42608
0.37589
0.367229
-0.365547
0.154958
0.212846
0.854342
0.33961
0.0640902
0.334797
0.970356
1.23182
0.209868
-0.128755
0.229694
1.25397
1.72607
1.96416
1.51131
1.30208
1.33327
2.20446
2.1386
2.63872
2.49792
1.35438
2.06038
0.596717
-0.406572
-0.1079
0.408959
0.180172
-0.692448
-0.519821
-0.351678
-0.302662
-1.54267
-1.07021
-0.254681
0.295649
0.494444
-0.254255
-0.108237
0.249789
0.240332
-0.757809
-0.254319
-0.379619
0.426836
0.916697
-0.210946
0.234352
0.644781
0.363854
0.447075
-0.36936
0.785228
0.314449
0.138421
0.425319
0.531579
0.796013
0.508616
1.03227
0.110323
0.246034
1.15294
1.38658
1.1451
0.296163
1.43253
0.96384
1.81654
1.23904
1.46233
1.33717
1.72496
1.0969
0.401522
0.0802045
0.502148
0.0275933
-0.322586
-1.17226
-1.08414
-0.558234
-0.75517
-0.766037
-0.813085
-0.697014
0.346475
-0.452771
-0.877892
-0.566174
0.399674
0.232819
-1.06247
-0.538701
0.602066
0.202877
0.940649
0.00346799
0.529193
-0.0897437
0.399429
0.692953
-0.157165
-0.0478469
-0.67254
0.480879
0.135953
0.862303
0.2674
0.913449
0.467371
0.0868698
0.371745
0.374312
0.693729
0.752152
0.557169
0.890794
0.372134
1.99632
0.758898
0.848248
0.74948
1.28832
0.310313
0.747954
0.266099
0.304351
0.0445932
-0.330283
-1.1014
-1.46289
-1.17668
-1.05282
-1.14702
-1.02711
0.0526602
0.505867
0.0591231
-0.186785
-0.438272
-0.652318
-1.12551
0.595876
-0.146788
0.349765
0.861664
0.0222164
-0.0966636
0.426303
-0.60796
-0.0865687
-0.176533
-0.45625
0.240324
-0.209393
-0.520446
-0.161876
0.327069
0.604084
-0.393916
-0.281456
-0.467139
0.00833898
0.48397
0.254965
0.76694
1.90884
1.37707
2.01542
2.12322
1.5604
0.594609
0.467668
0.883781
0.560506
-0.144239
-0.264606
-0.121555
-0.3528
-0.990381
-1.41023
-1.67662
-1.53091
-1.38526
-1.49693
-1.67021
1.56243
1.06574
0.210711
-0.0514527
-0.331103
0.394074
-0.202957
1.22205
0.00537896
0.263991
0.292401
0.487469
0.522549
-0.297228
-0.378687
0.108182
-0.32527
0.377742
0.192812
-1.63045
-0.722561
-0.687728
-0.545388
-0.254627
-0.542868
0.20468
0.396495
0.7977
0.570772
1.00104
1.36288
1.20245
0.586516
2.08167
1.83172
1.05866
0.981835
-0.134967
1.3201
0.794933
0.245381
-0.449233
0.0453792
-0.236958
0.00760074
-0.970443
-0.798055
-1.43867
-1.51897
-1.8061
-1.59455
1.03436
0.174485
0.574501
-0.255796
0.0347485
0.586271
0.479308
0.687132
0.570685
0.105096
0.306949
0.393589
-0.0980488
0.54868
0.425664
-0.474111
-0.045419
-0.319743
-0.289231
-0.886369
0.575919
-0.490423
-0.667343
-0.148133
-0.145702
-0.0131561
0.605914
0.24238
0.750913
0.303387
1.21505
0.846714
0.841398
1.4204
1.64237
1.41357
1.51604
1.49551
1.08111
0.662143
0.37001
-0.0315833
0.737789
-0.387334
-0.970355
-2.2162
-2.41046
-1.72554
-1.88339
-1.75353
-1.42177
-0.0380515
-0.134864
-0.320059
0.360114
1.53842
0.791444
1.15788
0.781676
0.0851678
0.276222
0.421169
0.0292438
0.161937
-0.0677864
0.1649
0.542186
0.613632
0.267924
0.573008
0.921105
0.820176
0.37653
0.161071
0.161134
-0.00414128
-0.212301
0.224359
1.07446
0.267369
-0.137322
0.349853
1.27703
0.7305
1.43931
1.87683
1.03671
1.45824
1.34592
0.920182
-0.141502
0.340416
-0.0644223
-0.507341
-0.185621
-0.912954
-1.25612
-1.87873
-1.83463
-1.51125
-2.18182
-1.98152
-0.571544
-0.369905
-0.410923
0.695265
1.65411
2.81173
2.54022
1.15917
0.8581
1.42734
0.208465
0.939452
0.64498
0.0852458
0.73842
1.35936
0.926873
1.40394
0.723352
1.48996
1.38576
0.706665
0.665757
0.743564
0.293268
0.236359
-0.00656917
0.539478
-0.483994
-0.412665
0.2193
0.585912
0.735867
0.895703
-0.160816
0.98046
1.91615
1.19958
0.851977