# vtk DataFile Version 3.0
vtk output
ASCII
DATASET UNSTRUCTURED_GRID
POINTS      16224 float
 0.00000000e+00  0.00000000e+00  0.00000000e+00
 1.00000000e+01  0.00000000e+00  0.00000000e+00
 2.00000000e+01  0.00000000e+00  0.00000000e+00
 3.00000000e+01  0.00000000e+00  0.00000000e+00
 4.00000000e+01  0.00000000e+00  0.00000000e+00
 5.00000000e+01  0.00000000e+00  0.00000000e+00
 6.00000000e+01  0.00000000e+00  0.00000000e+00
 7.00000000e+01  0.00000000e+00  0.00000000e+00
 8.00000000e+01  0.00000000e+00  0.00000000e+00
 9.00000000e+01  0.00000000e+00  0.00000000e+00
 1.00000000e+02  0.00000000e+00  0.00000000e+00
 1.10000000e+02  0.00000000e+00  0.00000000e+00
 1.20000000e+02  0.00000000e+00  0.00000000e+00
 1.30000000e+02  0.00000000e+00  0.00000000e+00
 1.40000000e+02  0.00000000e+00  0.00000000e+00
 1.50000000e+02  0.00000000e+00  0.00000000e+00
 1.60000000e+02  0.00000000e+00  0.00000000e+00
 1.70000000e+02  0.00000000e+00  0.00000000e+00
 1.80000000e+02  0.00000000e+00  0.00000000e+00
 1.90000000e+02  0.00000000e+00  0.00000000e+00
 2.00000000e+02  0.00000000e+00  0.00000000e+00
 2.10000000e+02  0.00000000e+00  0.00000000e+00
 2.20000000e+02  0.00000000e+00  0.00000000e+00
 2.30000000e+02  0.00000000e+00  0.00000000e+00
 2.40000000e+02  0.00000000e+00  0.00000000e+00
 2.50000000e+02  0.00000000e+00  0.00000000e+00
 2.60000000e+02  0.00000000e+00  0.00000000e+00
 2.70000000e+02  0.00000000e+00  0.00000000e+00
 2.80000000e+02  0.00000000e+00  0.00000000e+00
 2.90000000e+02  0.00000000e+00  0.00000000e+00
 3.00000000e+02  0.00000000e+00  0.00000000e+00
 3.10000000e+02  0.00000000e+00  0.00000000e+00
 3.20000000e+02  0.00000000e+00  0.00000000e+00
 3.30000000e+02  0.00000000e+00  0.00000000e+00
 3.40000000e+02  0.00000000e+00  0.00000000e+00
 3.50000000e+02  0.00000000e+00  0.00000000e+00
 3.60000000e+02  0.00000000e+00  0.00000000e+00
 3.70000000e+02  0.00000000e+00  0.00000000e+00
 3.80000000e+02  0.00000000e+00  0.00000000e+00
 3.90000000e+02  0.00000000e+00  0.00000000e+00
 4.00000000e+02  0.00000000e+00  0.00000000e+00
 4.10000000e+02  0.00000000e+00  0.00000000e+00
 4.20000000e+02  0.00000000e+00  0.00000000e+00
 4.30000000e+02  0.00000000e+00  0.00000000e+00
 4.40000000e+02  0.00000000e+00  0.00000000e+00
 4.50000000e+02  0.00000000e+00  0.00000000e+00
 4.60000000e+02  0.00000000e+00  0.00000000e+00
 4.70000000e+02  0.00000000e+00  0.00000000e+00
 4.80000000e+02  0.00000000e+00  0.00000000e+00
 4.90000000e+02  0.00000000e+00  0.00000000e+00
 5.00000000e+02  0.00000000e+00  0.00000000e+00
 5.10000000e+02  0.00000000e+00  0.00000000e+00
 0.00000000e+00  1.00000000e+01  0.00000000e+00
 1.00000000e+01  1.00000000e+01  0.00000000e+00
 2.00000000e+01  1.00000000e+01  0.00000000e+00
 3.00000000e+01  1.00000000e+01  0.00000000e+00
 4.00000000e+01  1.00000000e+01  0.00000000e+00
 5.00000000e+01  1.00000000e+01  0.00000000e+00
 6.00000000e+01  1.00000000e+01  0.00000000e+00
 7.00000000e+01  1.00000000e+01  0.00000000e+00
 8.00000000e+01  1.00000000e+01  0.00000000e+00
 9.00000000e+01  1.00000000e+01  0.00000000e+00
 1.00000000e+02  1.00000000e+01  0.00000000e+00
 1.10000000e+02  1.00000000e+01  0.00000000e+00
 1.20000000e+02  1.00000000e+01  0.00000000e+00
 1.30000000e+02  1.00000000e+01  0.00000000e+00
 1.40000000e+02  1.00000000e+01  0.00000000e+00
 1.50000000e+02  1.00000000e+01  0.00000000e+00
 1.60000000e+02  1.00000000e+01  0.00000000e+00
 1.70000000e+02  1.00000000e+01  0.00000000e+00
 1.80000000e+02  1.00000000e+01  0.00000000e+00
 1.90000000e+02  1.00000000e+01  0.00000000e+00
 2.00000000e+02  1.00000000e+01  0.00000000e+00
 2.10000000e+02  1.00000000e+01  0.00000000e+00
 2.20000000e+02  1.00000000e+01  0.00000000e+00
 2.30000000e+02  1.00000000e+01  0.00000000e+00
 2.40000000e+02  1.00000000e+01  0.00000000e+00
 2.50000000e+02  1.00000000e+01  0.00000000e+00
 2.60000000e+02  1.00000000e+01  0.00000000e+00
 2.70000000e+02  1.00000000e+01  0.00000000e+00
 2.80000000e+02  1.00000000e+01  0.00000000e+00
 2.90000000e+02  1.00000000e+01  0.00000000e+00
 3.00000000e+02  1.00000000e+01  0.00000000e+00
 3.10000000e+02  1.00000000e+01  0.00000000e+00
 3.20000000e+02  1.00000000e+01  0.00000000e+00
 3.30000000e+02  1.00000000e+01  0.00000000e+00
 3.40000000e+02  1.00000000e+01  0.00000000e+00
 3.50000000e+02  1.00000000e+01  0.00000000e+00
 3.60000000e+02  1.00000000e+01  0.00000000e+00
 3.70000000e+02  1.00000000e+01  0.00000000e+00
 3.80000000e+02  1.00000000e+01  0.00000000e+00
 3.90000000e+02  1.00000000e+01  0.00000000e+00
 4.00000000e+02  1.00000000e+01  0.00000000e+00
 4.10000000e+02  1.00000000e+01  0.00000000e+00
 4.20000000e+02  1.00000000e+01  0.00000000e+00
 4.30000000e+02  1.00000000e+01  0.00000000e+00
 4.40000000e+02  1.00000000e+01  0.00000000e+00
 4.50000000e+02  1.00000000e+01  0.00000000e+00
 4.60000000e+02  1.00000000e+01  0.00000000e+00
 4.70000000e+02  1.00000000e+01  0.00000000e+00
 4.80000000e+02  1.00000000e+01  0.00000000e+00
 4.90000000e+02  1.00000000e+01  0.00000000e+00
 5.00000000e+02  1.00000000e+01  0.00000000e+00
 5.10000000e+02  1.00000000e+01  0.00000000e+00
 0.00000000e+00  2.00000000e+01  0.00000000e+00
 1.00000000e+01  2.00000000e+01  0.00000000e+00
 2.00000000e+01  2.00000000e+01  0.00000000e+00
 3.00000000e+01  2.00000000e+01  0.00000000e+00
 4.00000000e+01  2.00000000e+01  0.00000000e+00
 5.00000000e+01  2.00000000e+01  0.00000000e+00
 6.00000000e+01  2.00000000e+01  0.00000000e+00
 7.00000000e+01  2.00000000e+01  0.00000000e+00
 8.00000000e+01  2.00000000e+01  0.00000000e+00
 9.00000000e+01  2.00000000e+01  0.00000000e+00
 1.00000000e+02  2.00000000e+01  0.00000000e+00
 1.10000000e+02  2.00000000e+01  0.00000000e+00
 1.20000000e+02  2.00000000e+01  0.00000000e+00
 1.30000000e+02  2.00000000e+01  0.00000000e+00
 1.40000000e+02  2.00000000e+01  0.00000000e+00
 1.50000000e+02  2.00000000e+01  0.00000000e+00
 1.60000000e+02  2.00000000e+01  0.00000000e+00
 1.70000000e+02  2.00000000e+01  0.00000000e+00
 1.80000000e+02  2.00000000e+01  0.00000000e+00
 1.90000000e+02  2.00000000e+01  0.00000000e+00
 2.00000000e+02  2.00000000e+01  0.00000000e+00
 2.10000000e+02  2.00000000e+01  0.00000000e+00
 2.20000000e+02  2.00000000e+01  0.00000000e+00
 2.30000000e+02  2.00000000e+01  0.00000000e+00
 2.40000000e+02  2.00000000e+01  0.00000000e+00
 2.50000000e+02  2.00000000e+01  0.00000000e+00
 2.60000000e+02  2.00000000e+01  0.00000000e+00
 2.70000000e+02  2.00000000e+01  0.00000000e+00
 2.80000000e+02  2.00000000e+01  0.00000000e+00
 2.90000000e+02  2.00000000e+01  0.00000000e+00
 3.00000000e+02  2.00000000e+01  0.00000000e+00
 3.10000000e+02  2.00000000e+01  0.00000000e+00
 3.20000000e+02  2.00000000e+01  0.00000000e+00
 3.30000000e+02  2.00000000e+01  0.00000000e+00
 3.40000000e+02  2.00000000e+01  0.00000000e+00
 3.50000000e+02  2.00000000e+01  0.00000000e+00
 3.60000000e+02  2.00000000e+01  0.00000000e+00
 3.70000000e+02  2.00000000e+01  0.00000000e+00
 3.80000000e+02  2.00000000e+01  0.00000000e+00
 3.90000000e+02  2.00000000e+01  0.00000000e+00
 4.00000000e+02  2.00000000e+01  0.00000000e+00
 4.10000000e+02  2.00000000e+01  0.00000000e+00
 4.20000000e+02  2.00000000e+01  0.00000000e+00
 4.30000000e+02  2.00000000e+01  0.00000000e+00
 4.40000000e+02  2.00000000e+01  0.00000000e+00
 4.50000000e+02  2.00000000e+01  0.00000000e+00
 4.60000000e+02  2.00000000e+01  0.00000000e+00
 4.70000000e+02  2.00000000e+01  0.00000000e+00
 4.80000000e+02  2.00000000e+01  0.00000000e+00
 4.90000000e+02  2.00000000e+01  0.00000000e+00
 5.00000000e+02  2.00000000e+01  0.00000000e+00
 5.10000000e+02  2.00000000e+01  0.00000000e+00
 0.00000000e+00  3.00000000e+01  0.00000000e+00
 1.00000000e+01  3.00000000e+01  0.00000000e+00
 2.00000000e+01  3.00000000e+01  0.00000000e+00
 3.00000000e+01  3.00000000e+01  0.00000000e+00
 4.00000000e+01  3.00000000e+01  0.00000000e+00
 5.00000000e+01  3.00000000e+01  0.00000000e+00
 6.00000000e+01  3.00000000e+01  0.00000000e+00
 7.00000000e+01  3.00000000e+01  0.00000000e+00
 8.00000000e+01  3.00000000e+01  0.00000000e+00
 9.00000000e+01  3.00000000e+01  0.00000000e+00
 1.00000000e+02  3.00000000e+01  0.00000000e+00
 1.10000000e+02  3.00000000e+01  0.00000000e+00
 1.20000000e+02  3.00000000e+01  0.00000000e+00
 1.30000000e+02  3.00000000e+01  0.00000000e+00
 1.40000000e+02  3.00000000e+01  0.00000000e+00
 1.50000000e+02  3.00000000e+01  0.00000000e+00
 1.60000000e+02  3.00000000e+01  0.00000000e+00
 1.70000000e+02  3.00000000e+01  0.00000000e+00
 1.80000000e+02  3.00000000e+01  0.00000000e+00
 1.90000000e+02  3.00000000e+01  0.00000000e+00
 2.00000000e+02  3.00000000e+01  0.00000000e+00
 2.10000000e+02  3.00000000e+01  0.00000000e+00
 2.20000000e+02  3.00000000e+01  0.00000000e+00
 2.30000000e+02  3.00000000e+01  0.00000000e+00
 2.40000000e+02  3.00000000e+01  0.00000000e+00
 2.50000000e+02  3.00000000e+01  0.00000000e+00
 2.60000000e+02  3.00000000e+01  0.00000000e+00
 2.70000000e+02  3.00000000e+01  0.00000000e+00
 2.80000000e+02  3.00000000e+01  0.00000000e+00
 2.90000000e+02  3.00000000e+01  0.00000000e+00
 3.00000000e+02  3.00000000e+01  0.00000000e+00
 3.10000000e+02  3.00000000e+01  0.00000000e+00
 3.20000000e+02  3.00000000e+01  0.00000000e+00
 3.30000000e+02  3.00000000e+01  0.00000000e+00
 3.40000000e+02  3.00000000e+01  0.00000000e+00
 3.50000000e+02  3.00000000e+01  0.00000000e+00
 3.60000000e+02  3.00000000e+01  0.00000000e+00
 3.70000000e+02  3.00000000e+01  0.00000000e+00
 3.80000000e+02  3.00000000e+01  0.00000000e+00
 3.90000000e+02  3.00000000e+01  0.00000000e+00
 4.00000000e+02  3.00000000e+01  0.00000000e+00
 4.10000000e+02  3.00000000e+01  0.00000000e+00
 4.20000000e+02  3.00000000e+01  0.00000000e+00
 4.30000000e+02  3.00000000e+01  0.00000000e+00
 4.40000000e+02  3.00000000e+01  0.00000000e+00
 4.50000000e+02  3.00000000e+01  0.00000000e+00
 4.60000000e+02  3.00000000e+01  0.00000000e+00
 4.70000000e+02  3.00000000e+01  0.00000000e+00
 4.80000000e+02  3.00000000e+01  0.00000000e+00
 4.90000000e+02  3.00000000e+01  0.00000000e+00
[...]
CELL_DATA      13005
SCALARS log(K) double
LOOKUP_TABLE default
0.993523
0.318217
0.967345
0.402227
0.982201
1.46363
0.50807
0.679521
0.0970416
-0.259493
-0.247133
-0.367976
0.0530913
0.136268
0.0222225
0.292138
0.529603
0.849302
1.0834
0.0424107
-0.103743
0.976022
-0.0621218
1.05025
-0.0572738
-0.149092
0.6242
-0.124837
-0.5192
0.0401933
-0.0756087
-0.134794
-0.0804169
-0.976633
-1.005
-1.17529
-0.798498
-1.14226
-2.07061
-1.67804
-0.961669
-0.699006
-1.27297
-1.27404
0.168554
-0.377262
0.920077
0.652214
0.210549
0.265321
0.156591
1.11801
0.230277
-0.0954198
-0.130145
0.0885281
0.229632
0.310575
1.02117
0.276631
-0.0433879
0.264854
0.268374
-0.117441
-0.0245688
-0.207828
-0.270479
1.04266
1.24125
1.01311
0.665195
0.796511
1.01545
1.18426
1.52325
0.23537
-0.375512
-0.641766
-0.516437
0.48716
0.0387855
-0.101407
-0.15564
-0.364345
-0.451251
-0.811054
-0.676917
-1.29903
-2.06221
-2.29047
-1.02753
-1.4286
-0.998838
-1.25624
-0.558543
0.0323876
-0.360427
-0.0153097
-0.242071
0.155324
0.42857
0.821924
0.57133
0.486133
-0.0192762
-0.652836
-0.450694
-0.647301
-0.275804
0.502344
0.533582
0.757125
0.642323
1.05606
0.420408
-0.32091
0.406466
0.783347
0.995363
0.809401
0.284567
1.18346
1.69137
0.801681
1.23091
0.804456
0.618837
0.0487961
-1.34581
0.0520374
0.516895
1.25532
0.951248
0.17351
-0.862229
-0.207188
-0.497146
-0.563712
-1.19149
-1.59102
-1.42572
-1.61628
-1.08692
-1.63882
-1.14026
-1.31685
-0.744563
0.166465
-0.557523
0.657336
0.198769
-0.675367
-0.688573
1.11414
0.029295
-0.44692
-1.11728
-1.46201
-1.00524
0.0373396
0.390149
0.587264
1.16945
1.02164
0.87538
0.126547
-0.670142
0.113089
0.156473
0.733598
0.974621
1.54829
0.561461
0.886835
1.37778
1.97631
1.86088
1.65544
0.315827
-0.061856
-0.172935
0.710716
1.57378
0.571134
0.360947
-0.440369
-0.894035
-0.517192
-0.934785
-0.894996
-1.60155
-0.823112
-0.399415
-1.00904
-0.983913
-1.07419
-1.53016
-0.213562
-0.04613
0.107965
-0.289565
0.680932
0.72917
0.471171
0.606177
0.201718
0.227357
-0.327554
-0.69793
-0.945918
0.52162
0.0985431
0.576112
0.975015
0.850447
0.599222
0.304998
-0.638542
-0.533008
-0.48186
0.275228
0.526094
-0.0216318
-0.301457
0.543624
0.938455
1.68765
1.43964
1.41683
0.121985
-0.717064
-0.511681
0.213561
1.54594
1.10304
0.451337
0.449976
0.148366
0.108769
-0.324461
-0.332766
-0.850207
-1.00856
-0.719308
0.467705
-0.07571
-1.00878
-0.718182
0.203015
-0.316562
-0.311599
1.03406
1.87999
1.34321
0.873603
1.09503
0.636157
0.542516
0.607617
0.515104
0.427431
1.53589
1.08277
0.485498
1.17345
1.88315
1.7179
0.864038
-0.0834294
-0.226605
-1.13644
-1.42021
-0.476988
-0.254884
0.0308394
-0.067928
0.848995
1.21297
0.948248
0.988234
0.465727
0.300342
-0.361153
0.410535
0.431191
1.4339
0.503898
0.193731
0.179688
0.613372
0.602465
0.580859
-0.383077
-0.0232141
-0.29718
0.109995
-0.335979
-0.186808
-0.924099
-0.123204
0.167239
-0.0762916
-0.129052
0.754119
1.77548
0.675924
1.39361
0.280517
0.686097
0.555076
0.981065
1.01391
0.846932
0.263603
0.430164
0.779826
1.47974
1.78909
1.69147
0.948068
-0.538966
-1.23133
-1.89308
-0.852045
-0.994935
-0.297726
0.0678332
0.356803
-0.196678
0.477683
0.664478
0.343971
-0.02122
-0.259833
0.284021
0.33367
0.168974
0.649463
0.292557
-0.0128514
0.0932448
0.612685
1.29806
0.729539
0.644958
0.453087
0.436546
0.319963
-0.879424
-1.1102
-0.243791
-0.32752
-0.0927425
-0.462617
-0.443051
0.671136
0.0601959
0.897967
1.10035
1.02473
0.676123
0.951913
1.62225
1.74865
0.734099
1.22251
1.03403
1.72997
2.74193
1.71447
0.959949
-0.45474
-0.400114
-1.17793
-1.44506
-1.51161
-0.806477
-0.0975763
-0.478985
-0.121851
0.193993
-0.317794
-0.839991
-0.647993
-1.22764
-0.293448
0.440857
0.229316
-0.203942
0.833902
0.787836
0.679113
0.936499
1.22581
1.57378
0.343255
1.12573
1.09152
0.357175
0.105052
-0.406537
-0.382426
0.480589
0.758989
-0.0889815
-0.537323
-0.196296
-0.138733
0.930087
1.23266
1.21615
0.439399
0.560041
1.35533
0.564024
1.0697
0.846976
1.14434
2.32714
1.95055
2.1139
0.731768
-0.275751
-0.572077
-1.29052
-1.522
-1.84676
-0.908897
-0.759606
-0.624425
-1.16701
-0.799315
-1.11063
-1.11317
0.689006
0.0830334
-0.346605
-0.209879
0.293478
-0.687079
0.249605
0.466764
-0.0765368
0.965693
1.27131
1.02763
0.412728
0.890204
0.607147
0.220967
0.269395
-0.916404
-0.749754
0.241826
-0.12326
-0.00614105
-0.383282
-0.275591
0.00119928
0.334356
-0.0385051
-0.135573
1.08116
0.675333
1.65379
0.986471
0.608403
1.39334
1.42143
2.07614
1.37905
1.60302
0.815408
0.283038
-0.424497
-1.01199
-0.936424
-1.81589
-0.876528
-0.404114
-1.0319
-0.960877
-0.746294
-0.658131
0.312939
0.782685
0.60878
-0.86215
-1.0067
-0.543863
0.453414
0.423178
-0.304787
-0.64564
0.28844
1.41123
1.54813
0.551964
0.206476
0.0643189
-0.152493
-0.322602
-0.556959
-0.994451
0.289997
-0.289937
-0.88984
-0.198156
0.589996
0.0212943
0.0484303
-0.114094
-0.436038
0.807368
1.17836
1.22
1.36483
0.902905
1.00112
1.20998
1.82506
1.53284
1.79425
0.691616
1.22357
0.0233697
-0.827592
-1.21024
-1.14992
-1.29194
-0.215813
-0.460102
-0.631053
-0.374881
0.00233093
1.01219
1.15274
0.97357
0.330524
-0.485355
-0.241851
0.58292
1.16252
-0.604792
-0.17141
0.757748
1.04942
0.985794
0.595812
0.23358
0.442483
0.219796
-0.192263
-0.71153
-0.915478
-0.498813
-0.734219
-1.44088
-0.355293
1.40719
0.203072
-0.0527753
-0.520895
-0.0248129
0.222819
0.652895
0.71983
0.921638
0.516431
-0.163797
0.0108929
0.27303
1.37226
1.62455
0.932092
0.520547
-0.179545
-0.804703
-1.49296
-1.44358
0.16979
0.894283
0.0731285
-0.560339
-0.00492691
0.766886
0.456489
1.04611
0.86706
0.71285
0.559795
-0.182919
1.17454
0.937567
0.404275
0.325568
1.45479
0.461646
1.29663
1.26578
0.209174
-0.314427
-0.657434
-0.627288
-0.387523
-1.1808
0.14133
-0.24003
-0.736817
-0.841314
-0.421988
0.21112
1.03747
0.447668
0.612763
1.24766
0.791345
0.737794
1.05503
0.552279
-0.091466
-0.796795
-0.510223
0.395191
1.5813
0.232314
0.360648
0.628849
-0.391699
-0.987285
-1.06101
0.228565
0.264578
0.459215
0.112996
-0.490626
-0.658388
0.476182
0.166646
-0.051328
0.185377
-0.381446
0.0896118
0.38176
0.909036
-0.0120772
0.676126
0.746976
0.827757
0.74151
0.329173
0.965791
0.226046
0.0901129
-1.3023
-0.936032
-1.08239
0.376234
0.00334492
-0.852177
-0.65428
-0.1385
-0.0611429
0.445069
1.3126
1.9068
1.17544
1.73579
0.510887
0.202784
0.140189
-0.379274
-0.307324
0.687083
0.206289
0.436699
0.137725
0.669487
0.639216
-0.0966471
-0.461093
-0.914705
-1.01017
0.0642781
-0.347631
0.151898
-0.770694
-0.96351
0.224537
-0.118571
-1.47361
-1.01592
-0.669932
-0.83342
-0.493486
0.774552
0.276059
0.34275
0.459946
1.23671
0.775558
0.618675
-0.0113065
0.436266
0.379669
-0.489289
-0.451224
-0.298954
0.673658
0.610142
-0.136662
-0.0509982
-0.383785
0.722441
0.711208
1.87277
2.01435
0.71558
1.1491
1.21684
-0.0852386
-0.431088
-0.615246
0.0855962
0.800979
1.19121
0.763749
0.2377
0.280824
-0.213627
-0.438867
-1.34727
-0.756913
-0.409355
0.120475
0.0874707
0.157553
-0.49239
-0.126828
-0.152794
-0.535254
-0.370996
-0.0111682
-0.636627
-0.199054
-0.417745
-0.487562
-0.0619085
0.464373
0.938878
1.03643
0.489542
-0.413597
-0.469938
-0.251791
-0.359328
0.501895
-0.213871
-0.16108
-0.265374
-0.0338371
-0.0529251
-0.00892971
-0.797981
-0.504253
0.92419
0.604914
0.319993
1.23083
0.938382
0.0155405
-0.845777
-0.449829
-0.564188
0.293003
0.977356
1.24191
1.15571
0.109668
-1.01991
-1.43654
-0.984891
-0.635886
-0.141979
-0.144862
0.644069
0.570418
-0.0291597
-0.109188
0.914006
-0.163947
0.036496
-0.00888869
-0.281107
0.292072
-0.817027
-0.428512
-0.586548
-0.515192
-0.0236789
0.513495
-0.238931
-0.602734
-0.704951
-0.791429
-0.015021
-0.457518
0.612104
0.445325
-0.764862
-0.119769
-0.53057
0.550728
0.268621
0.447845
-0.136344
0.229183
-0.318748
0.31748
0.679798
0.559415
-0.246837
-1.33132
-1.31665
-0.61673
-0.329515
-0.305994
1.03517
0.339313
0.689158
0.167441
-1.09466
-0.678692
-0.337882
0.077601
0.129205
0.684837
0.256089
-0.0160813
-0.575124
0.114565
0.104417
-0.216524
-0.197398
-0.478355
0.887544
0.683327
-0.149508
-0.809888
-1.26974
-0.0297204
-0.186635
-0.211599
-1.16338
-1.14379
-1.21433
-0.972978
-0.699151
0.409113
0.168629
-0.603686
-0.238619
-0.270031
0.278152
-0.145042
0.235624
-0.151227
-0.146492
-0.785029
0.431781
0.502822
0.246137
-0.406941
-0.785368
-0.66723
-0.850223
0.416738
-0.359206
0.263296
-0.139884
-0.552505
-0.88737
0.178987
1.00875
0.672322
0.632865
1.0408
0.481665
0.256788
0.0190509
-0.13281
-0.726663
-0.353937
-0.401662
-0.872878
-0.780312
0.0704743
0.177878
0.00839586
-0.684788
-0.338101
0.469578
0.347612
-0.753256
-1.18875
-1.57108
-1.63149
-1.04529
-0.135649
0.295662
0.0189998
1.03401
0.456825
-0.932591
-0.91391
0.222796
-0.186155
0.418176
-0.214207
-0.962437
0.274179
-0.168517
-0.631219
-1.09881
-0.929036
-0.840279
-0.892524
-0.491799
0.0518444
0.0997969
0.514351
-0.553891
-0.183831
0.232238
0.408077
0.440315
0.463931
1.08877
0.689276
-0.086864
-0.607813
-0.875572
-0.0480442
-0.32544
-0.282069
-0.959744
-1.30619
-0.945959
-0.190145
-0.570137
-0.806654
-0.110246
0.11281
0.00345193
-1.06324
-1.54354
-1.72859
-1.19401
-1.34247
-0.2577
0.462939
1.04009
0.818313
0.316591
-0.368037
-0.614738
0.409543
1.15644
1.62493
-0.551536
-0.635238
-0.505687
-0.267371
-0.398805
-0.468949
-0.332386
0.27942
-0.344062
-0.620012
-0.544748
-0.350832
0.0708672
-0.156681
-1.05143
-0.604091
-0.049267
0.479425
1.02744
1.26843
1.45213
0.325444
0.0212738
-0.407562
-0.534329
-1.16381
-1.01897
-1.41232
-1.44808
-0.639088
-1.15825
-1.06
-0.115732
0.169205
0.0406141
-0.681309
-0.81353
-0.685338
-1.02482
-1.47129
-1.04921
-0.205188
-0.259388
0.354697
0.869706
0.283647
0.804656
-0.117495
1.14912
2.04159
1.61937
-0.300405
-0.0511097
-1.02066
0.677633
0.109336
0.529901
0.370113
0.9693
0.591762
0.0959588
0.543547
0.395147
0.160554
0.380655
-0.464877
-0.946267
-0.0777142
0.289914
0.430051
1.33314
1.11146
0.839347
-0.105329
-0.455766
-1.00188
-0.779489
-1.08685
-1.43672
-1.46486
-0.71772
-0.299493
-0.591052
-0.234002
-1.01132
-1.21546
-1.33447
-1.26361
-0.342518
-1.13999
-1.62788
-1.03153
-0.697222
-0.226303
-0.173401
1.05356
1.02705
0.51115
0.731206
1.46407
0.888454
1.7305
-1.12455
-0.519823
-0.450688
-0.613089
0.974678
0.666386
1.37863
1.52717
0.943356
0.19013
-0.126425
0.724122
1.03859
0.895297
0.216883
-0.536786
-0.415577
0.924457
1.3073
1.82881
2.32072
1.55981
-0.00360858
-0.851824
-1.21962
-0.774031
-1.70392
-2.45413
-1.15521
-0.643475
-0.517498
0.885661
-0.407204
-1.16682
-1.267
-0.879268
-1.39739
-1.05424
-1.46952
-0.736609
-0.899724
-0.962142
-1.18595
0.11491
0.789802
0.691579
0.474139
0.811041
1.56091
1.39402
0.603625
-0.852129
-0.275157
-0.740428
-0.47003
-0.105382
-0.239482
0.684424
0.820067
0.606753
0.31806
0.50755
1.59019
1.30312
0.775764
0.0665865
-0.169359
-0.486578
0.292094
1.35343
2.68124
1.02919
0.490603
-0.531651
-0.241873
-0.875311
-1.26797
-1.86011
-2.36113
-1.62273
-1.61639
-0.970843
0.593554
0.157834
-0.354456
-1.38666
-1.63016
-1.19096
-0.701269
-0.8192
-1.27462
-0.264309
-1.19877
-1.23222
-0.314873
-0.468294
0.178395
1.43804
1.53795
2.75003
0.816812
0.255647
-0.767682
-0.721786
-0.974944
-1.25207
-0.377337
-0.378271
0.043982
0.149729
-0.0310767
-0.167629
0.209666
0.711372
1.03759
0.660942
-0.171136
-0.448812
-0.109839
0.255865
0.873619
1.19899
0.941205
-0.0127426
-0.284606
-0.461644
-0.741513
-0.958332
-1.56554
-2.46356
-1.65682
-0.96717
-1.83482
-0.233165
-0.382573
-1.49854
-1.49366
-0.848541
-0.275944
0.364171
-0.512507
-1.07643
-0.580413
-1.03788
-1.09563
-0.465973
0.472006
0.40976
1.8351
2.17597
2.1409
1.97337
1.30263
-0.951206
-0.804623
-1.28195
-0.46681
-0.312542
0.565443
0.939633
0.447111
-0.30897
0.646816
0.00580257
0.480088
0.96994
0.662131
0.159199
-0.0702008
-0.21454
0.264109
0.848254
-0.825165
-0.0617162
-1.18179
-0.504203
0.0844701
-0.301793
-0.478468
-1.30007
-1.90886
-2.3239
-1.99886
-0.95045
-0.276383
-0.565672
-1.42375
-1.04739
-0.248564
-0.0800828
0.0190627
-0.0685992
-0.00567072
-0.0277011
-0.25876
-0.716057
0.246287
1.13731
1.36143
1.67165
1.55397
2.97337
2.23583
1.65269
-0.782747
-1.27897
-0.437328
-0.278242
0.381335
1.24132
1.30332
0.438393
1.0166
1.11688
1.11498
0.158068
0.220886
0.160753
1.03317
1.30385
-0.0205476
-0.0702141
0.6261
0.849543
-0.196782
-0.414079
0.414014
0.671136
0.285241
-0.981385
-1.24345
-1.85275
-2.78307
-0.98271
-0.306451
-0.764039
-0.644825
-0.306326
-0.494566
-0.470903
-0.231385
0.0677594
-0.0474836
0.147677
0.482023
-0.368313
0.269357
0.271023
1.77204
1.01092
1.77471
1.66747
2.85619
2.79024
1.88586
-0.744397
-0.795537
-0.591066
-0.409983
0.0561059
0.0400166
0.0599554
0.0292647
0.545082
1.5154
1.03366
0.264109
0.228679
0.584981
0.484877
0.461463
0.531886
-0.110222
0.0327617
-0.224885
-0.0820488
-0.346437
0.136865
0.840471
0.998979
-0.0490295
-1.64826
-1.58157
-2.11047
-0.653397
-0.596921
-0.958484
-0.355899
-0.0373963
-0.14446
-0.301058
-0.41621
0.782858
1.24744
0.45411
0.707322
1.33708
0.580074
0.528976
1.07967
1.85704
1.82249
1.81522
2.22939
2.26311
1.66454
-0.842423
-1.60172
-1.09486
-1.38438
-0.0437524
-0.379159
0.459983
-0.294351
-0.255463
1.01511
0.972198
1.6543
1.05104
0.275253
0.0448905
-0.105661
0.310388
-0.209181
0.214416
-0.0201665
-0.282792
-0.209021
-0.37042
1.01323
-0.203943
-0.584671
-1.58827
-1.30897
-0.924871
-0.861345
-0.842109
-0.295568
0.114361
-0.15294
0.606487
0.0676368
0.788289
2.22434
2.14026
1.37535
1.12082
1.27234
1.80767
1.94815
2.55528
2.46878
1.94993
2.0574
1.46881
0.74104
1.59412
-1.28324
-1.30198
-0.829305
-1.05207
-0.85684
-0.430021
-0.0662779
-0.431477
-1.48211
-0.290083
0.436363
-0.270174
-0.114373
0.412034
0.522721
0.653591
0.518733
0.340468
-0.0156661
-0.776354
-0.201124
-0.2397
0.362686
-0.403395
-1.11861
-1.22212
-0.845232
-0.515842
-0.719151
-1.02852
-1.09918
-0.298592
-0.00786407
0.338534
0.437396
1.53873
1.63034
2.23928
2.35385
2.21998
1.33798
1.70461
2.25103
1.61063
1.9862
2.55953
1.8548
2.23055
1.69463
1.0053
0.35448
-1.41389
-1.79645
-1.06096
-1.41298
-0.741134
0.0944372
-0.426804
-0.800895
-1.0123
-0.201846
0.185201
-0.581042
-0.0275424
-0.360592
-0.317959
0.608555
-1.02981
-0.385081
-0.269616
-0.20986
-0.533458
0.118444
-0.62564
-0.893181
-1.2651
-1.79248
-1.46427
-1.13221
-0.908401
-0.802294
-1.35437
-0.546344
-0.218252
0.136962
1.06788
1.53009
2.09157
2.25021
2.29093
2.83493
1.94407
1.76363
1.94097
1.743
2.27005
2.62496
2.40023
1.97602
2.37449
0.220828
-0.136975
-2.02043
-2.25123
-1.27037
-1.95514
-1.09205
-0.734537
-0.946014
-1.93342
-0.862218
-0.358656
0.910551
0.562962
0.22221
-0.499508
-0.078332
0.181888
-0.895672
-0.136605
0.0940274
1.05422
0.232973
0.524544
-0.0713545
-1.04891
-1.12242
-2.48933
-2.13632
-1.60839
-1.25224
-0.736089
-0.780787
-0.0152606
-0.213525
0.533688
0.803559
1.95098
2.52659
2.28443
1.91724
2.80236
2.67331
1.74782
1.22611
1.60837
2.02535
2.67037
1.52334
1.8827
1.17087
0.299004
0.115827
-1.52263
-2.04433
-0.956801
-1.54202
-2.14623
-1.28578
-1.70431
-1.98582
-1.36913
-0.693228
0.434983
0.35129
0.697325
-0.238781
0.395354
-0.385629
-1.30349
-1.09342
0.258199
1.3903
0.161964
0.698371
-0.642128
-0.536174
-1.47003
-2.73403
-2.69315
-1.56803
-1.00046
-1.77493
-1.53046
-0.311431
-0.775427
-0.584626
0.830121
1.81339
2.99468
3.09527
2.57892
3.12072
2.98798
2.15259
0.824842
0.732702
0.911454
1.18214
0.668883
0.747115
0.710128
0.544508
0.670849
-1.30118
-1.57505
-0.940771
-2.40222
-2.43368
-1.13351
-1.70227
-1.82468
-1.74813
-0.208185
0.560496
0.66776
0.522234
-0.552741
-0.089006
-1.37618
-0.922368
-1.09744
0.323428
1.18928
1.10941
0.444649
0.465554
-0.478058
-0.91768
-1.83495
-1.41979
-1.67938
-1.08908
-1.30819
-1.33997
-1.08305
-0.702096
-0.440563
0.792856
2.11708
2.64919
2.80618
2.74626
3.87999
3.36884
2.33426
0.758936
0.175516
0.0509484
-0.482681
-0.289697
-0.256178
0.326574
-0.217359
0.39461
-1.28216
-0.962083
-2.45788
-2.05786
-1.09151
0.352941
-0.564233
-1.42848
-1.21439
-0.483506
-0.837149
-0.371153
0.0914674
-0.232585
-0.87397
-0.804764
-1.07607
-0.85736
0.0321133
0.301506
0.0259124
0.631813
0.440227
-0.77929
-0.740071
-1.20754
-1.60231
-1.53894
-0.12728
-0.475039
-1.3728
-0.191099
-0.327847
0.537242
0.543704
1.58097
2.30265
2.86669
4.10617
2.82165
2.69211
1.55524
1.0031
0.690448
-0.367643
-0.657705
-0.882511
-1.98842
-0.960182
-0.391932
0.248249
-0.690231
-1.55837
-2.17177
-2.30462
-1.29714
-0.568573
-0.743903
-1.62283
-1.99414
-1.11665
-1.75664
-0.759191
-0.706992
-1.10197
-1.17431
-1.06124
-1.09124
-0.15157
-0.581806
0.457985
0.20332
0.285584
0.0798968
-0.781174
-0.720976
-0.989942
-1.49467
-1.71289
-0.763873
0.324594
0.0090322
-0.223004
1.09463
0.710229
0.802464
0.663468
1.40367
2.43955
3.74928
3.50045
2.64069
2.5526
1.2838
-0.401997
-0.944078
-0.522834
-0.449667
-0.570795
-0.896101
-0.937148
-0.0553651
-1.37007
-0.909175
-1.37432
-1.43131
-0.366498
-0.0802921
-0.660555
-0.859043
-1.48647
-1.82512
-1.57672
-1.884
-1.56984
-1.87859
-1.26086
-1.15338
-1.46097
-0.422729
-0.0201429
-0.35485
-0.187798
-0.528128
-0.469728
-0.0564461
-0.464168
-1.06823
-0.379467
-1.67328
-1.95068
-0.445273
0.42276
-0.115003
0.47669
0.546621
1.38832
1.00652
1.16187
2.62105
3.24311
2.91254
3.27471
1.94523
1.00449
-0.444767
-0.318227
-0.421248
-0.362624
-0.281652
-0.115991
-0.455148
-0.369869
-1.23789
-0.987393
-1.47858
-0.546716
-0.702864
-1.23643
-2.01011
-1.79739
-1.64924
-1.65843
-1.86503
-2.19812
-0.88114
-1.63537
-1.32672
-1.28135
-1.82707
-0.300876
-0.411635
-0.542998
-0.673804
-1.0035
-0.605942
-0.262757
-0.198252
-1.49108
-1.8554
-1.65805
-0.942981
-1.43541
-0.649758
0.00884023
0.71628
0.862625
0.99619
1.7988
1.95069
1.26261
2.38622
3.20947
2.71175
0.522021
-0.206957
-0.632256
-0.279056
-0.298508
-0.349719
0.0254518
-0.618312
-0.36199
-0.21212
-0.609515
-0.676456
-0.465681
-0.143715
-0.0265073
-0.711369
-1.19398
-2.29211
-2.00509
-1.59076
-2.12561
-2.27405
-1.65703
-0.707523
-0.808182
-0.891646
-0.0981737
0.0864025
-0.875923
-0.59195
-1.21941
-0.752222
-1.14606
-1.20518
-1.03553
-1.76369
-1.99483
-2.38736
-0.551448
-0.488371
-1.25228
-0.808341
0.893819
1.60368
0.89979
0.827591
1.20102
1.93499
1.3302
2.14831
1.69244
0.404783
-0.929628
-0.578111
-0.597373
-0.476246
-1.12286
-0.83052
-0.673936
-0.404057
-0.584088
-0.42336
0.579488
-0.799091
-0.746219
-1.02126
-0.415202
-1.51872
-1.92043
-2.60668
-1.6944
-1.82785
-2.60248
-3.00248
-1.56058
-1.28264
-0.251662
-0.518803
-0.64035
-1.34111
-1.69719
-1.47545
-1.98671
-2.14607
-1.88233
-1.25213
-1.61139
-1.13242
-0.962122
-0.942729
-0.290407
-0.358208
0.371269
0.482038
1.21453
1.11987
0.52855
1.61075
1.37064
1.37781
1.55299
1.51942
0.443007
-0.179193
-1.41646
-1.03112
-1.14561
-1.19552
-0.786768
-1.25399
-0.824987
-0.935015
-0.273904
0.229021
-0.0348194
-0.492783
0.0474824
-0.326617
-1.23623
-1.50064
-1.7297
-1.08419
-1.85365
-2.54216
-1.94747
-1.59693
-1.32928
-0.595931
0.261582
-0.594437
-1.38549
-1.35405
-0.734095
-0.560451
-1.9811
-1.87439
-1.54622
-1.58312
-1.04781
-0.278418
0.061227
-0.141875
0.734077
0.493633
0.763632
0.843163
1.51813
0.860145
0.96159
1.60023
1.19284
1.33616
0.584535
0.40962
-0.581939
-0.573687
-1.45044
-1.20936
-0.519965
-1.36891
-0.93424
-1.56391
-0.248075
0.308196
0.278221
0.536013
0.500687
-0.1827
-0.649152
-0.834559
-1.25165
-1.74878
-2.12436
-1.47823
-2.53871
-1.97039
-1.73221
-1.68894
-0.891148
-0.0682555
-0.116866
-1.64372
-0.693516
0.0442994
-0.0590202
-1.30897
-1.48673
-1.42653
-1.92833
-0.560815
-0.665909
0.45566
0.0500208
-0.00836912
0.399446
0.726055
0.838228
0.826531
0.669214
1.09238
1.88068
2.18575
1.58357
1.47786
1.77046
0.93793
-0.0505627
-0.358863
-0.959283
-1.30527
-0.424273
-1.31681
-0.770169
-0.422006
0.33757
0.225286
1.15183
-0.0547737
-0.331594
-1.25148
-0.742218
-0.949251
-1.12206
-2.18629
-2.19858
-1.6393
-1.47065
-1.11081
-1.49465
-0.280498
-0.2764
-0.266999
-0.0261783
-1.62577
-0.728604
0.130227
-0.950328
-1.22448
-1.39915
-1.83658
-0.0528719
0.71304
0.546675
-0.416649
0.249623
0.664393
-0.124955
0.67993
-0.00818963
0.547542
0.939207
1.88762
2.2647
1.75938
1.52701
1.83878
1.24153
0.381086
0.769011
-0.569535
-0.352602
-0.811403
-0.204177
-0.438498
0.326703
0.907137
-0.223522
0.45146
0.0224156
-1.4957
-1.27908
-1.55263
-0.667948
-0.892
-1.47535
-1.98638
-2.4824
-1.05231
-0.592246
-0.692332
-1.38696
-0.314051
0.0582776
-1.446
-1.33186
-1.9569
-1.52128
-0.861699
-0.693293
-0.996765
-0.238724
1.12072