# vtk DataFile Version 3.0
vtk output
ASCII
DATASET UNSTRUCTURED_GRID
POINTS      16224 float
 0.00000000e+00  0.00000000e+00  0.00000000e+00
 1.00000000e+01  0.00000000e+00  0.00000000e+00
 2.00000000e+01  0.00000000e+00  0.00000000e+00
 3.00000000e+01  0.00000000e+00  0.00000000e+00
 4.00000000e+01  0.00000000e+00  0.00000000e+00
 5.00000000e+01  0.00000000e+00  0.00000000e+00
 6.00000000e+01  0.00000000e+00  0.00000000e+00
 7.00000000e+01  0.00000000e+00  0.00000000e+00
 8.00000000e+01  0.00000000e+00  0.00000000e+00
 9.00000000e+01  0.00000000e+00  0.00000000e+00
 1.00000000e+02  0.00000000e+00  0.00000000e+00
 1.10000000e+02  0.00000000e+00  0.00000000e+00
 1.20000000e+02  0.00000000e+00  0.00000000e+00
 1.30000000e+02  0.00000000e+00  0.00000000e+00
 1.40000000e+02  0.00000000e+00  0.00000000e+00
 1.50000000e+02  0.00000000e+00  0.00000000e+00
 1.60000000e+02  0.00000000e+00  0.00000000e+00
 1.70000000e+02  0.00000000e+00  0.00000000e+00
 1.80000000e+02  0.00000000e+00  0.00000000e+00
 1.90000000e+02  0.00000000e+00  0.00000000e+00
 2.00000000e+02  0.00000000e+00  0.00000000e+00
 2.10000000e+02  0.00000000e+00  0.00000000e+00
 2.20000000e+02  0.00000000e+00  0.00000000e+00
 2.30000000e+02  0.00000000e+00  0.00000000e+00
 2.40000000e+02  0.00000000e+00  0.00000000e+00
 2.50000000e+02  0.00000000e+00  0.00000000e+00
 2.60000000e+02  0.00000000e+00  0.00000000e+00
 2.70000000e+02  0.00000000e+00  0.00000000e+00
 2.80000000e+02  0.00000000e+00  0.00000000e+00
 2.90000000e+02  0.00000000e+00  0.00000000e+00
 3.00000000e+02  0.00000000e+00  0.00000000e+00
 3.10000000e+02  0.00000000e+00  0.00000000e+00
 3.20000000e+02  0.00000000e+00  0.00000000e+00
 3.30000000e+02  0.00000000e+00  0.00000000e+00
 3.40000000e+02  0.00000000e+00  0.00000000e+00
 3.50000000e+02  0.00000000e+00  0.00000000e+00
 3.60000000e+02  0.00000000e+00  0.00000000e+00
 3.70000000e+02  0.00000000e+00  0.00000000e+00
 3.80000000e+02  0.00000000e+00  0.00000000e+00
 3.90000000e+02  0.00000000e+00  0.00000000e+00
 4.00000000e+02  0.00000000e+00  0.00000000e+00
 4.10000000e+02  0.00000000e+00  0.00000000e+00
 4.20000000e+02  0.00000000e+00  0.00000000e+00
 4.30000000e+02  0.00000000e+00  0.00000000e+00
 4.40000000e+02  0.00000000e+00  0.00000000e+00
 4.50000000e+02  0.00000000e+00  0.00000000e+00
 4.60000000e+02  0.00000000e+00  0.00000000e+00
 4.70000000e+02  0.00000000e+00  0.00000000e+00
 4.80000000e+02  0.00000000e+00  0.00000000e+00
 4.90000000e+02  0.00000000e+00  0.00000000e+00
 5.00000000e+02  0.00000000e+00  0.00000000e+00
 5.10000000e+02  0.00000000e+00  0.00000000e+00
 0.00000000e+00  1.00000000e+01  0.00000000e+00
 1.00000000e+01  1.00000000e+01  0.00000000e+00
 2.00000000e+01  1.00000000e+01  0.00000000e+00
 3.00000000e+01  1.00000000e+01  0.00000000e+00
 4.00000000e+01  1.00000000e+01  0.00000000e+00
 5.00000000e+01  1.00000000e+01  0.00000000e+00
 6.00000000e+01  1.00000000e+01  0.00000000e+00
 7.00000000e+01  1.00000000e+01  0.00000000e+00
 8.00000000e+01  1.00000000e+01  0.00000000e+00
 9.00000000e+01  1.00000000e+01  0.00000000e+00
 1.00000000e+02  1.00000000e+01  0.00000000e+00
 1.10000000e+02  1.00000000e+01  0.00000000e+00
 1.20000000e+02  1.00000000e+01  0.00000000e+00
 1.30000000e+02  1.00000000e+01  0.00000000e+00
 1.40000000e+02  1.00000000e+01  0.00000000e+00
 1.50000000e+02  1.00000000e+01  0.00000000e+00
 1.60000000e+02  1.00000000e+01  0.00000000e+00
 1.70000000e+02  1.00000000e+01  0.00000000e+00
 1.80000000e+02  1.00000000e+01  0.00000000e+00
 1.90000000e+02  1.00000000e+01  0.00000000e+00
 2.00000000e+02  1.00000000e+01  0.00000000e+00
 2.10000000e+02  1.00000000e+01  0.00000000e+00
 2.20000000e+02  1.00000000e+01  0.00000000e+00
 2.30000000e+02  1.00000000e+01  0.00000000e+00
 2.40000000e+02  1.00000000e+01  0.00000000e+00
 2.50000000e+02  1.00000000e+01  0.00000000e+00
 2.60000000e+02  1.00000000e+01  0.00000000e+00
 2.70000000e+02  1.00000000e+01  0.00000000e+00
 2.80000000e+02  1.00000000e+01  0.00000000e+00
 2.90000000e+02  1.00000000e+01  0.00000000e+00
 3.00000000e+02  1.00000000e+01  0.00000000e+00
 3.10000000e+02  1.00000000e+01  0.00000000e+00
 3.20000000e+02  1.00000000e+01  0.00000000e+00
 3.30000000e+02  1.00000000e+01  0.00000000e+00
 3.40000000e+02  1.00000000e+01  0.00000000e+00
 3.50000000e+02  1.00000000e+01  0.00000000e+00
 3.60000000e+02  1.00000000e+01  0.00000000e+00
 3.70000000e+02  1.00000000e+01  0.00000000e+00
 3.80000000e+02  1.00000000e+01  0.00000000e+00
 3.90000000e+02  1.00000000e+01  0.00000000e+00
 4.00000000e+02  1.00000000e+01  0.00000000e+00
 4.10000000e+02  1.00000000e+01  0.00000000e+00
 4.20000000e+02  1.00000000e+01  0.00000000e+00
 4.30000000e+02  1.00000000e+01  0.00000000e+00
 4.40000000e+02  1.00000000e+01  0.00000000e+00
 4.50000000e+02  1.00000000e+01  0.00000000e+00
 4.60000000e+02  1.00000000e+01  0.00000000e+00
 4.70000000e+02  1.00000000e+01  0.00000000e+00
 4.80000000e+02  1.00000000e+01  0.00000000e+00
 4.90000000e+02  1.00000000e+01  0.00000000e+00
 5.00000000e+02  1.00000000e+01  0.00000000e+00
 5.10000000e+02  1.00000000e+01  0.00000000e+00
 0.00000000e+00  2.00000000e+01  0.00000000e+00
 1.00000000e+01  2.00000000e+01  0.00000000e+00
 2.00000000e+01  2.00000000e+01  0.00000000e+00
 3.00000000e+01  2.00000000e+01  0.00000000e+00
 4.00000000e+01  2.00000000e+01  0.00000000e+00
 5.00000000e+01  2.00000000e+01  0.00000000e+00
 6.00000000e+01  2.00000000e+01  0.00000000e+00
 7.00000000e+01  2.00000000e+01  0.00000000e+00
 8.00000000e+01  2.00000000e+01  0.00000000e+00
 9.00000000e+01  2.00000000e+01  0.00000000e+00
 1.00000000e+02  2.00000000e+01  0.00000000e+00
 1.10000000e+02  2.00000000e+01  0.00000000e+00
 1.20000000e+02  2.00000000e+01  0.00000000e+00
 1.30000000e+02  2.00000000e+01  0.00000000e+00
 1.40000000e+02  2.00000000e+01  0.00000000e+00
 1.50000000e+02  2.00000000e+01  0.00000000e+00
 1.60000000e+02  2.00000000e+01  0.00000000e+00
 1.70000000e+02  2.00000000e+01  0.00000000e+00
 1.80000000e+02  2.00000000e+01  0.00000000e+00
 1.90000000e+02  2.00000000e+01  0.00000000e+00
 2.00000000e+02  2.00000000e+01  0.00000000e+00
 2.10000000e+02  2.00000000e+01  0.00000000e+00
 2.20000000e+02  2.00000000e+01  0.00000000e+00
 2.30000000e+02  2.00000000e+01  0.00000000e+00
 2.40000000e+02  2.00000000e+01  0.00000000e+00
 2.50000000e+02  2.00000000e+01  0.00000000e+00
 2.60000000e+02  2.00000000e+01  0.00000000e+00
 2.70000000e+02  2.00000000e+01  0.00000000e+00
 2.80000000e+02  2.00000000e+01  0.00000000e+00
 2.90000000e+02  2.00000000e+01  0.00000000e+00
 3.00000000e+02  2.00000000e+01  0.00000000e+00
 3.10000000e+02  2.00000000e+01  0.00000000e+00
 3.20000000e+02  2.00000000e+01  0.00000000e+00
 3.30000000e+02  2.00000000e+01  0.00000000e+00
 3.40000000e+02  2.00000000e+01  0.00000000e+00
 3.50000000e+02  2.00000000e+01  0.00000000e+00
 3.60000000e+02  2.00000000e+01  0.00000000e+00
 3.70000000e+02  2.00000000e+01  0.00000000e+00
 3.80000000e+02  2.00000000e+01  0.00000000e+00
 3.90000000e+02  2.00000000e+01  0.00000000e+00
 4.00000000e+02  2.00000000e+01  0.00000000e+00
 4.10000000e+02  2.00000000e+01  0.00000000e+00
 4.20000000e+02  2.00000000e+01  0.00000000e+00
 4.30000000e+02  2.00000000e+01  0.00000000e+00
 4.40000000e+02  2.00000000e+01  0.00000000e+00
 4.50000000e+02  2.00000000e+01  0.00000000e+00
 4.60000000e+02  2.00000000e+01  0.00000000e+00
 4.70000000e+02  2.00000000e+01  0.00000000e+00
 4.80000000e+02  2.00000000e+01  0.00000000e+00
 4.90000000e+02  2.00000000e+01  0.00000000e+00
 5.00000000e+02  2.00000000e+01  0.00000000e+00
 5.10000000e+02  2.00000000e+01  0.00000000e+00
 0.00000000e+00  3.00000000e+01  0.00000000e+00
 1.00000000e+01  3.00000000e+01  0.00000000e+00
 2.00000000e+01  3.00000000e+01  0.00000000e+00
 3.00000000e+01  3.00000000e+01  0.00000000e+00
 4.00000000e+01  3.00000000e+01  0.00000000e+00
 5.00000000e+01  3.00000000e+01  0.00000000e+00
 6.00000000e+01  3.00000000e+01  0.00000000e+00
 7.00000000e+01  3.00000000e+01  0.00000000e+00
 8.00000000e+01  3.00000000e+01  0.00000000e+00
 9.00000000e+01  3.00000000e+01  0.00000000e+00
 1.00000000e+02  3.00000000e+01  0.00000000e+00
 1.10000000e+02  3.00000000e+01  0.00000000e+00
 1.20000000e+02  3.00000000e+01  0.00000000e+00
 1.30000000e+02  3.00000000e+01  0.00000000e+00
 1.40000000e+02  3.00000000e+01  0.00000000e+00
 1.50000000e+02  3.00000000e+01  0.00000000e+00
 1.60000000e+02  3.00000000e+01  0.00000000e+00
 1.70000000e+02  3.00000000e+01  0.00000000e+00
 1.80000000e+02  3.00000000e+01  0.00000000e+00
 1.90000000e+02  3.00000000e+01  0.00000000e+00
 2.00000000e+02  3.00000000e+01  0.00000000e+00
 2.10000000e+02  3.00000000e+01  0.00000000e+00
 2.20000000e+02  3.00000000e+01  0.00000000e+00
 2.30000000e+02  3.00000000e+01  0.00000000e+00
 2.40000000e+02  3.00000000e+01  0.00000000e+00
 2.50000000e+02  3.00000000e+01  0.00000000e+00
 2.60000000e+02  3.00000000e+01  0.00000000e+00
 2.70000000e+02  3.00000000e+01  0.00000000e+00
 2.80000000e+02  3.00000000e+01  0.00000000e+00
 2.90000000e+02  3.00000000e+01  0.00000000e+00
 3.00000000e+02  3.00000000e+01  0.00000000e+00
 3.10000000e+02  3.00000000e+01  0.00000000e+00
 3.20000000e+02  3.00000000e+01  0.00000000e+00
 3.30000000e+02  3.00000000e+01  0.00000000e+00
 3.40000000e+02  3.00000000e+01  0.00000000e+00
 3.50000000e+02  3.00000000e+01  0.00000000e+00
 3.60000000e+02  3.00000000e+01  0.00000000e+00
 3.70000000e+02  3.00000000e+01  0.00000000e+00
 3.80000000e+02  3.00000000e+01  0.00000000e+00
 3.90000000e+02  3.00000000e+01  0.00000000e+00
 4.00000000e+02  3.00000000e+01  0.00000000e+00
 4.10000000e+02  3.00000000e+01  0.00000000e+00
 4.20000000e+02  3.00000000e+01  0.00000000e+00
 4.30000000e+02  3.00000000e+01  0.00000000e+00
 4.40000000e+02  3.00000000e+01  0.00000000e+00
 4.50000000e+02  3.00000000e+01  0.00000000e+00
 4.60000000e+02  3.00000000e+01  0.00000000e+00
 4.70000000e+02  3.00000000e+01  0.00000000e+00
 4.80000000e+02  3.00000000e+01  0.00000000e+00
 4.90000000e+02  3.00000000e+01  0.00000000e+00
[...]
CELL_DATA      13005
SCALARS log(K) double
LOOKUP_TABLE default
0.343014
-0.00314596
0.232764
-0.252338
-0.375346
-0.359692
0.115787
-0.636338
-0.811498
-0.656741
-0.31962
-0.672184
-1.81505
-1.26206
-1.31467
-0.903967
-0.821557
-1.10961
-0.920223
-0.658662
-0.79045
1.1041
0.00337195
-0.0466259
-0.309633
-0.347873
-0.0308266
0.416997
-0.169047
-0.880978
-0.899848
-0.532508
0.40481
0.167739
0.57542
0.357803
0.629644
1.24046
2.32371
0.468433
0.0167861
-0.542941
-1.35862
-1.11672
-1.44513
-0.959162
-0.552464
0.44169
-0.0459536
-0.155975
-0.188971
-0.0294416
-0.0791858
0.258358
-0.261583
-1.35055
-1.50382
-0.320626
-0.24625
-0.586344
-0.675747
-0.286039
-0.366042
-1.17558
-1.4388
-1.14878
-1.06614
-1.29958
-1.05524
-0.165536
0.215073
0.557934
0.654885
0.115929
-0.0446617
-0.41493
-0.45332
-0.053137
0.0812077
-0.452346
-1.15888
-1.0975
-0.7919
0.503807
-0.161473
-0.72975
-0.268264
-0.209306
0.821238
1.12896
-0.0444952
-0.910048
-1.25589
-1.92851
-1.3803
-1.88922
-0.882501
0.00178387
-0.158878
0.170642
-1.12014
-1.07584
0.940602
0.0338242
-0.860113
-0.950895
-1.64622
-1.27867
-0.492984
-1.17048
-0.393278
-0.749753
-0.924499
-1.47125
-1.97454
-2.25587
-1.29891
-1.64408
-1.72311
-1.24933
-0.244734
0.711964
0.60718
1.37223
0.211932
0.143193
0.0265021
-0.789849
-0.277616
-0.518334
-0.46747
-1.50569
-0.881866
-1.26954
-0.240463
-0.279276
-1.008
-0.42544
-0.614714
-0.617091
-0.436676
-0.0378052
-1.14042
-1.62385
-1.6965
-1.17186
-1.10533
-1.11758
-1.60194
-1.57014
-1.24735
-1.00785
-1.46831
1.00356
0.623754
-0.598762
-1.12038
-1.57768
-1.6134
-0.592071
-0.144393
0.0818363
-0.325134
-1.14119
-0.920889
-1.41832
-1.20002
-0.622636
-1.2292
-1.031
-0.914484
0.267525
0.0656971
0.373928
0.926788
0.418801
0.177472
0.527223
-0.325648
-0.659478
0.22832
-0.370307
-1.66656
-1.02197
-0.744585
-0.726669
-0.403479
-0.712597
-1.21617
-1.80231
-1.67881
-1.18212
-0.363634
-1.35111
-1.6549
-1.6757
-1.10236
-1.30049
-0.824609
-1.45968
-0.95325
-1.38673
-1.57062
-1.39504
0.584331
0.157898
-0.680314
-0.485296
-0.81695
-1.63499
-1.09969
-0.118636
-0.16451
-0.212384
-0.299518
-0.506718
-0.771792
-0.441883
-0.0696145
0.207138
-0.810031
-0.997165
-0.207293
0.472138
0.0866746
0.133127
-0.161552
-0.0487073
0.495171
0.354689
-0.0235936
0.332483
-0.876899
-1.29501
-1.51342
-1.36037
-0.735823
-0.426877
-0.646605
-1.27126
-0.726125
-1.64053
-0.431367
-0.00478362
0.122126
-1.69925
-1.23504
-1.52662
-0.944004
-0.803675
-1.26952
-1.20455
-1.96398
-1.53145
-1.55865
0.636181
-0.332718
-0.691299
-1.24722
-0.877118
-1.06265
-0.898703
-1.13774
-0.678265
0.0792301
0.188558
-0.296683
-0.412142
0.884209
0.655407
0.969963
-0.831049
-0.992187
-0.732261
-0.529681
-0.916315
-0.38268
-0.499367
-0.503456
0.494003
-0.185171
0.823632
0.735346
0.328806
-0.873307
-1.31296
-1.46371
-0.516092
-0.802572
0.0431407
-0.84908
-0.348578
-0.517426
-1.09968
0.560019
0.879783
-0.5812
-0.327096
-0.83936
-1.28006
-1.30808
-1.22194
-1.37174
-2.09582
-1.68809
-1.23287
-0.211465
-1.13589
-0.309926
-0.28909
-0.503851
-1.20887
-1.27045
-1.29102
-1.4827
-1.19371
-0.62456
0.500526
1.28152
2.08415
2.74848
2.01507
0.580711
-0.108045
-0.506418
0.137742
-0.722084
-0.741506
-0.488089
-0.407421
-0.317195
0.732318
0.138022
0.249449
0.828692
0.0469674
-0.511299
-0.660935
0.415417
0.291039
0.497658
0.253037
-0.36245
0.366844
-0.124716
1.05981
0.529257
0.593253
0.382081
-0.433788
-0.919156
-1.73286
-1.39327
-2.1242
-2.2326
-1.66342
-1.28635
-0.430923
-0.683869
-0.408791
0.0477174
-0.487256
-0.411907
-0.884722
-1.54588
-1.43603
-0.865956
-0.820519
-0.531969
0.730668
1.95601
3.28502
2.34603
2.48645
1.39755
0.908474
0.584351
-1.31681
-0.3457
-0.564529
-0.34553
-0.278991
0.608741
0.150141
0.896039
-0.225464
-0.521255
0.137359
0.00447461
0.778214
0.0611506
0.759639
0.381893
0.729394
0.878984
0.68458
1.09467
1.19242
1.06961
0.700837
-0.484644
-0.276744
-1.30636
-1.01524
-1.36669
-1.39473
-1.42621
-0.960901
0.212786
-0.125872
0.115352
0.451249
0.256429
0.415315
-0.518687
-1.07286
-1.74782
-0.646444
-0.869302
0.247733
0.742955
1.52356
1.9235
2.72133
2.12467
2.41942
1.76933
0.908316
0.0446226
0.0308609
-0.59693
-1.06181
-0.278908
-0.0238329
-0.261488
-0.319495
-0.104067
0.085792
0.836591
1.36883
0.502357
0.336689
0.358227
0.831974
0.819462
0.585261
-0.144316
0.929598
1.56561
1.93597
1.16652
-0.124938
0.157702
-0.452374
-0.157063
-0.703455
-0.0172435
-0.519701
-0.33948
1.54182
0.264206
0.971978
0.0437032
-0.438934
-0.536015
-0.805096
-1.3832
-1.51203
-0.590352
0.330003
1.28434
0.286296
1.13697
0.914431
1.62188
1.56936
2.03818
2.44734
1.40491
0.654792
-0.495933
-1.07668
-1.39476
-0.81765
-0.180205
-0.357139
-0.59533
0.00104341
-0.458341
0.387934
0.31178
0.661052
0.757932
0.292249
0.484648
1.27122
0.450012
0.350543
1.57614
1.8461
1.85488
1.54027
1.20252
0.590757
0.125467
0.0394246
0.0340869
-0.331551
-0.496817
-0.604287
1.99016
0.349278
0.424297
-0.431925
-1.28167
-1.38762
-1.74057
-1.59499
-1.42158
-1.4257
0.196124
0.704925
1.50634
1.04731
0.725577
0.712228
1.55313
1.63503
1.9748
1.85428
1.75045
0.571019
0.0123358
-0.00139531
-0.40844
0.620088
0.466855
-0.954639
-0.904956
-0.739273
-1.22021
-0.136525
0.118374
-0.381141
0.1133
0.433046
1.57392
0.667638
0.95127
1.91279
2.05319
1.63605
1.26234
1.02327
0.0789341
0.323811
-0.0195725
-0.136295
0.88848
0.675102
-0.0393116
0.578754
-0.0376417
-0.14563
-0.417106
-1.34452
-1.49533
-1.24562
-2.03898
-1.44318
-1.23612
0.0200823
0.289221
1.0417
1.34107
1.67041
0.922579
0.699967
1.06232
1.26005
0.832252
0.770301
0.895449
0.64892
0.260535
0.198683
1.02658
0.619626
-0.0962654
-0.454736
-1.05919
-1.91331
-1.09734
0.0936649
0.224288
0.0638978
0.682022
1.69111
1.23501
1.1228
1.98789
2.17511
2.27183
1.62046
0.671881
0.774668
0.968211
1.07501
0.286645
0.261806
0.741708
0.248972
0.540811
-0.186805
-0.0245097
-0.519428
-1.03294
-2.05323
-1.03471
-1.39796
-1.30083
-0.625514
-0.657275
0.386248
1.16872
1.36539
1.46398
0.538486
1.6923
1.09565
0.680378
0.540163
0.914026
0.778573
-0.171663
0.125258
0.0404443
0.105014
-0.203483
0.368741
-0.00444865
-1.51038
-1.21429
-0.990623
-0.622326
-0.204951
0.317997
0.759601
1.75829
1.66856
1.87693
1.46651
1.88507
1.4723
1.65681
0.815156
1.27167
1.40623
0.940977
0.108987
0.815959
1.11984
0.0726366
0.597423
0.0849489
-0.122179
-0.0727371
-0.289442
-0.843507
-0.99534
-1.18777
-1.15617
-0.441036
0.209258
0.847349
0.282022
1.11741
0.729712
0.125054
0.415562
0.612736
0.215115
0.582835
0.766526
-0.0305849
0.057746
-0.215822
-0.00732786
-0.46468
-0.98638
0.117287
0.117242
-0.755004
-0.970201
-0.611779
-0.112753
0.297718
-0.528433
0.152038
2.03034
2.55278
2.45453
1.3451
1.19613
1.40736
1.06508
1.69507
1.05081
1.51087
1.60736
1.4656
1.43868
1.52612
0.681161
0.672366
-0.151916
0.564086
-0.525162
-0.348254
-0.820058
-1.30024
0.183084
-0.479474
-0.258762
0.438184
0.916657
0.820252
0.808443
0.334285
0.121334
0.502279
0.40124
0.403095
0.611625
0.552894
0.0187298
0.436495
-0.491975
-0.887211
-0.99175
-1.13203
-0.476018
-0.837988
-0.827456
-0.549532
-0.204699
-0.0106661
-0.354662
-0.352073
0.74019
1.48455
2.45268
2.6612
1.6972
1.43247
1.70105
1.24885
1.29621
1.41991
1.15168
1.45561
2.04296
1.47899
1.85326
1.47449
0.582775
0.210277
-0.0324262
0.608923
-0.293507
-0.460538
-0.179995
0.484109
0.537673
0.223818
0.988275
-0.127953
-0.343144
-0.432588
0.293874
-0.351068
-1.15641
-0.444114
-0.802365
0.252344
0.43958
0.296821
-0.0802479
-0.076631
0.160976
-0.357927
-0.185737
-1.46812
-0.586812
-0.400821
-0.406288
-0.832586
0.00103781
0.0656923
0.255673
0.755672
0.676963
1.44566
1.25321
1.49761
1.63442
1.55079
1.80758
0.340736
1.22184
1.61032
1.48257
1.31768
1.97128
1.80644
1.21486
0.300467
0.555135
0.216812
-0.153744
-0.642714
-0.870929
0.146332
0.164514
0.379489
0.485101
0.968608
0.482489
-0.824542
0.0811591
0.462229
0.802077
0.0372985
-0.665168
-0.107412
-0.586049
0.422446
0.547744
0.800471
-0.320514
0.448278
0.19537
-0.268336
-0.725205
0.0493562
-0.0289946
0.491596
-1.08513
-0.331305
0.236494
-0.227696
-0.468722
0.271634
-0.115321
1.88543
1.39064
0.934196
1.1646
1.8829
1.89705
1.12364
1.55011
2.14901
1.91836
1.96914
1.23555
1.2831
0.798313
0.8746
0.868602
0.153731
-0.374238
0.688663
0.793714
-0.373642
0.36316
0.764728
0.921925
0.236682
-0.295445
-0.0233445
0.521711
-0.0368053
0.141683
0.1356
-0.479999
-0.0408718
0.157966
0.753975
0.890955
-0.0550311
0.580398
0.310535
-0.288819
-0.297617
-1.14501
0.706254
0.598024
0.507653
0.710115
0.436894
-0.249595
0.354787
0.397096
0.519297
1.08025
1.22614
1.49004
1.96571
2.77944
2.24449
1.45808
1.40456
2.14775
2.24345
2.41677
1.64153
1.17415
0.666995
1.15375
0.229005
-0.33719
0.471149
0.139791
0.895978
0.408775
0.848499
0.93038
0.93678
0.235755
0.625866
0.178809
0.354125
-0.719819
-0.628423
-0.409418
0.2188
-0.0146239
0.286859
0.250081
0.768862
-0.372528
0.0768882
0.270645
-0.293915
-0.531559
-0.768442
0.476188
0.713541
-0.0094743
-0.0291479
0.0292873
0.0295314
1.15726
0.990235
1.41503
1.13516
0.755467
0.672268
0.595304
1.93876
1.44217
1.3597
1.91245
2.50064
1.68886
1.23624
1.0929
0.868017
0.29789
1.02404
1.20876
-0.15763
0.232787
0.471115
1.24359
0.682837
1.0144
1.06996
1.11512
0.904628
0.284716
0.104948
-0.169444
-0.604807
-0.591955
-1.17101
-0.695837
-0.402171
-1.34411
-0.176207
0.112464
-0.0752123
-0.393516
0.766106
0.126291
-0.398572
-0.634949
0.479396
0.218828
-0.29679
-0.336889
-0.545988
-0.199581
0.531838
0.842366
0.989512
1.04572
0.593692
0.469306
0.223912
0.957348
1.11389
1.02268
0.568366
1.08097
1.25666
1.59756
1.23397
1.05355
0.109423
0.251819
0.275085
1.48022
1.98618
1.02867
0.862025
0.473857
0.620892
1.40666
1.48517
1.75159
0.674741
1.29776
0.350532
0.0813466
0.0585567
0.0247759
0.517221
-0.665137
-0.11792
-0.836551
-0.384352
0.101793
0.244537
0.285326
-0.0200961
-0.226388
-0.405079
-0.310596
-0.340781
-0.516508
-0.43017
0.0217543
-0.522909
-0.667568
0.606352
0.365041
1.53837
0.967722
1.23503
0.385219
0.0763823
0.868798
0.383923
0.836144
0.190705
0.916578
0.916563
1.0984
1.03205
-0.0134219
-0.447336
0.279305
0.875352
1.19521
0.669544
1.23508
0.935499
1.51236
1.20559
1.6277
1.61757
1.51289
0.385158
1.69439
0.855761
0.57509
-0.232497
0.225285
-0.50089
-0.976817
-0.0833491
-0.241434
0.272884
-0.32409
0.564999
0.981392
-0.0795078
-0.318778
0.0761492
0.650598
0.394216
-0.235804
0.490492
-0.0070117
0.000702397
0.637057
1.52989
1.90733
1.92165
0.942014
0.223009
0.318217
-0.503065
-0.494106
0.0354975
0.0476382
0.577261
0.66395
0.624452
1.55455
-0.519339
-0.536432
0.831082
1.35791
1.97788
1.34175
1.55584
1.99264
1.72019
1.69169
1.57803
1.98636
1.34233
0.938364
0.692534
1.19392
0.463362
-0.163501
0.573257
-0.287501
-0.723835
-0.0789263
0.0422175
-0.0973376
-0.0926571
0.10392
0.589419
0.950872
0.15357
0.0203236
0.38039
0.557371
0.690549
0.417302
-0.171415
0.478969
0.370949
1.09587
1.70592
1.83185
1.49256
0.93322
0.399486
0.325941
-0.486958
-1.05546
-1.0549
-0.392386
0.00446497
-0.105987
0.951483
-0.647796
-0.616424
0.791214
2.14933
2.7129
1.86756
1.16703
1.60762
1.62315
1.67889
2.49484
1.79499
1.15127
0.538009
1.19513
0.831795
-0.406928
0.356877
0.394263
-0.630454
-0.5661
-0.265241
-0.461854
0.243223
-0.357093
-0.850748
-0.169595
1.14401
0.481123
-0.577628
0.591419
0.842856
0.598959
0.241787
0.0446233
-0.528377
-0.0430694
0.956607
2.14437
1.06683
0.711129
0.660003
0.712782
0.0697706
-0.247781
-2.50653
-2.47144
-1.60377
-1.04542
-0.0984342
0.00318861
-0.529025
-0.0903228
1.74503
3.03866
2.81122
2.61967
1.27017
1.1395
1.50494
1.43768
1.58512
1.48622
1.24132
0.973992
0.714435
-0.2486
-0.64415
0.30493
-0.312483
-0.43245
-0.522007
0.0668993
-0.665037
-1.56567
-1.10902
-0.825344
-0.401228
0.352215
-0.0993234
-0.461941
0.0942251
0.78665
0.942514
-0.0101797
-0.423181
-0.577571
0.116403
0.894885
1.8922
2.1565
2.07831
1.15139
0.475516
-0.685604
-1.38034
-2.07912
-2.74278
-1.86733
-1.78332
-0.604331
0.0169911
0.970523
1.05472
1.82986
2.42561
2.90125
3.058
1.66575
1.50232
1.15625
0.98782
0.95473
1.40888
1.43881
1.56294
0.33857
-0.619187
-1.1784
0.109253
-0.506883
-0.51901
0.386863
-1.28006
-1.12378
-1.03396
-1.29396
-0.760465
-0.0338481
-0.339726
-0.656843
-0.709375
-0.741238
1.08605
1.21264
-0.219421
-0.384936
-0.425287
0.513547
0.583701
1.87829
2.22629
1.92744
0.683578
-0.0272986
-0.704653
-1.22215
-1.62336
-2.13584
-1.83668
-1.56896
-1.84625
-0.805849
1.60377
2.8362
2.43249
2.77941
3.13557
2.55858
3.23267
1.97799
0.995594
0.847401
1.24929
1.80279
2.16074
0.914487
-0.486433
-0.234307
-0.238116
-0.149932
-0.244415
-0.322806
-1.00398
-1.62216
-1.6465
-1.91589
-0.771615
-0.718792
-0.249064
-0.239421
-0.417929
-0.944434
-1.19554
0.645341
0.181475
0.118736
-0.119787
-0.0285124
0.327949
1.05356
1.20919
0.894135
1.10002
0.896479
-0.285458
-0.489406
-0.431788
-1.35951
-1.4803
-1.83791
-2.18553
-2.19064
-0.911224
1.83282
1.8523
2.37211
2.82087
2.57416
2.67212
2.93054
2.41553
1.03174
1.55537
1.36723
1.28823
1.78666
1.54567
0.246731
-0.0468856
0.075621
0.261933
-0.585433
-0.743141
-0.898744
-1.81744
-1.85487
-1.63114
-0.833779
-0.684512
-0.615182
-0.238196
-0.329257
-0.279116
-0.390983
0.199669
-0.00595629
-0.922763
-0.133931
0.103986
0.993661
1.30984
1.41484
0.641333
-0.0266967
-0.759616
-0.235339
-0.98173
-1.05421
-1.59472
-1.00821
-2.60942
-2.60104
-2.01021
-1.36279
1.69389
1.20179
1.55245
3.03831
2.40348
2.65468
2.13972
1.65292
-0.0829798
-0.229507
1.47218
1.05497
1.18995
0.586237
1.35248
0.799394
-0.330662
0.581066
-0.22788
-1.37422
-1.77121
-1.86141
-1.12367
-0.430018
0.181899
-0.178425
0.0417798
0.17103
-0.860195
-1.04521
-0.976675
-0.123297
-0.419738
-1.13416
-0.329456
-0.341526
-0.233917
0.517802
1.14063
0.807696
-1.06648
-0.753891
-1.30095
-1.53862
-1.32367
-0.508749
-1.42739
-2.74751
-2.55814
-1.42648
-0.309512
0.497744
1.47693
1.75295
2.1902
2.18884
1.64253
2.09206
0.954769
1.02899
-0.558184
1.13863
0.250275
0.854544
0.84465
0.943341
-0.288778
0.0327227
-0.451423
-0.753768
-0.558588
-2.00055
-2.05525
-1.3379
0.392579
0.64446
0.389773
0.449908
0.365357
-0.425873
-0.554891
-0.894848
-1.03359
-0.833504
-1.24723
-0.671737
0.108685
0.0666522
0.751069
0.501925
0.0912083
0.0820509
-0.379015
-0.831807
-1.58491
-2.05446
-2.62543
-2.12167
-2.01253
-2.05859
-1.17635
-0.94741
0.695768
1.20081
0.948523
1.03187
1.39382
1.07966
1.27902
1.14133
0.4499
0.596935
1.3469
0.861615
0.662281
0.581518
0.274686
-0.543024
0.36737
0.599596
-0.16737
-0.817988
-1.7074
-1.05064
-1.16457
0.0769793
0.525756
0.226994
-0.000980149
-0.369318
-0.200846
-0.197784
-0.64965
-0.791265
-1.65582
-1.04242
-1.30044
-0.428459
0.502852
0.168173
-0.177659
-0.694661
-0.439215
-1.29095
-0.978601
-1.83639
-2.25201
-2.15268
-1.89349
-1.48978
-0.947168
-0.371684
-0.0724866
0.73114
0.52478
0.558844
1.18383
0.738561
0.894482
0.748981
0.246821
0.834572
0.789634
1.07202
1.42087
1.23473
0.476557
-0.0526045
-0.132597
0.167833
1.32854
0.284273
-1.09307
-1.42695
-1.52772
-0.901442
-0.167288
-0.417156
-0.121683
0.0117554
-0.485852
0.450743
-0.378844
-0.226564
-0.712677
-0.657275
-0.949083
-1.5903
-1.11363
-0.443172
-0.539544
0.403691
-0.0817505
-0.0456273
-0.270265
-0.739549
-1.13003
-1.90063
-1.58052
-1.69022
-1.29154
-0.386135
-0.0187793
-0.210754
0.408017
1.1742
1.02703
0.680992
1.59907
1.93912
0.859668
0.493626
1.18254
1.8662
1.56303
1.52749
0.695167
0.757244
0.538581
0.363113
0.0164069
0.0791699
-0.158164
-0.829137
-1.55675
-1.13472
-0.383799
-0.698529
-0.969031
-0.755062
-0.301681
-0.286967
0.0847787
-0.94369
-0.683191
-1.15492
-0.787151
-1.19594
-1.39388
-0.7612
-0.548215
-0.693877
-0.265736
-0.613822
-0.787495
0.238431
-0.798796
-1.22955
-0.97544
-0.60794
-1.11157
-1.06181
-0.440869
-0.124624
0.0538289
0.882263
0.961056
0.494535
1.57178
2.39667
2.07136
1.47653
1.48903
0.753953
2.00673
1.44528
0.483028
0.408262
0.270273
-0.24689
-0.587454
0.110808
-0.118322
-0.408651
-1.51327
-0.792714
0.0463256
-0.456974
-0.558509
-0.0971127
-1.50262
-1.95414
-0.311357
-0.226174
-0.916439
-0.457315
-1.10584
-1.13929
-1.31068
-1.65441
-1.25777
-1.56789
-1.5446
-0.572864
-0.746066
-1.17867
-1.10344
-1.32404
-1.60283
-1.04839
-1.08231
-1.63664
-0.790038
-0.0131026
0.248245
-0.00856982
0.525433
0.654372
0.250406
1.31393
1.59527
2.17881
1.09212
0.99101
1.37091
1.256
1.20013
1.33982
-0.254455
-0.369114
-1.39436
-1.41617
-1.81956
-0.588255
-1.00262
-0.826614
-0.650361
0.0105394
0.370456
1.44704
0.0410663
-0.486229
-1.03158
-0.272886
0.725632
0.545085
-0.0036203
-0.354501
-1.25309
-0.694136
0.0441274
-0.756785
-1.49496
-1.66158
-1.66604
-0.48542
-0.759099
-1.3718
-1.79204
-1.06892
-1.01804
-1.14159
-1.56755
-0.612406
-0.45453
0.158971
0.506754
1.38472
1.04461
0.367337
0.962361
2.1448
1.88273
1.41849
1.48022
1.12497
1.51122
1.31584
1.36243
0.6917
-0.195919
-1.07054
-1.44242
-0.83602
-0.903015
-0.936704
-1.00996
-0.38841
0.942155
0.740991
0.57099
0.904382
0.246495
0.06747
-0.114463
0.180299
-0.0949461
-0.314637
-0.609187
-0.352415
0.078672
-0.169593
-1.03063
-1.42972
-1.08673
-1.38514
-1.11355
-0.885845
-1.2103
-1.87775
-1.31945
-1.32115
-1.08866
-1.33755
-0.542549
0.19674
0.231104
0.771511
1.00842
0.582539
0.453145
0.0531697
0.825714
1.19901
1.09536
1.99428
1.362
1.55308
0.494835
-0.239639
-0.086473
-0.214182
-1.11811
-0.582432
-0.816578
-0.848133
-1.45802
-1.19862
-0.659062
-0.101697
-0.420141
0.0536355
-0.147388
0.163794
0.473969
0.406496
-1.05158
-0.753786
-0.471502
-0.813404
0.245154
-0.13127
-0.0366567
-0.852829
-1.19176
-1.3998
-2.05807
-1.80146
-1.15068
-1.03035
-0.914301
-0.577134
-1.06948
-0.923176
-1.19345
-0.729895
0.841297
1.07221
1.7723
0.920046
1.25929
0.972722
0.509211
1.03061
1.1113
1.11267
2.02994
1.04155
0.929784
0.997608
0.410511
0.276018
0.47512
-0.584416
-0.403411
-0.717967
-0.453425
-1.04141
-1.21897
-1.68052
-1.43131
-1.06005
-0.743527
-0.0392344
-0.968987
-0.633361
-0.10522
0.116391
-0.72878
-0.20952
0.765412
1.02772
-0.314935
0.119642
-0.563796
-0.970264
-1.0927
-1.53975
-1.49369
-1.40391
-1.13081
0.146035
-0.942252
-1.48243
-0.795724
-0.547483
-0.288143
0.0148586
0.609613
1.59987
0.597232
2.19359
0.864788
0.43679
0.22405
1.3266
1.30377
2.0953
1.63573
1.47383
1.63731
0.953235
0.706139
0.421984
0.565561
0.199773
0.380787
-0.805428
-1.17126
-0.739389
-2.04419
-1.61378
-1.57498
-0.37127
-0.726901
-0.236225
-0.160585
-0.653884
-0.247988
-0.394476
-0.841357
0.0481521
1.29547
0.681117
0.486654
-0.336758
-0.675361
-0.811446
-1.25987
-1.0534
-0.553056
-0.858918
-0.539936
-1.27157
-0.53449
-0.972248
-0.0406466
0.283236
0.519537
0.610585
2.04261
0.657817
1.73804
1.6629
1.62284
0.633486
0.885758
1.87818
1.6824
1.87689
1.58587
0.992624
1.59793
1.50536
0.410715
0.928594
0.948369
0.820687
-0.0365289
-0.413933
-0.518441
-1.97588
-2.36171
-1.22455
0.183256
0.322309
-0.218388
-0.236938
0.308027
0.824456
0.589713
-0.41657
0.253342
0.691116
0.866376
1.35017
-0.168811
-0.831507
-0.889514
-0.826421
-0.823945
-0.253738
-0.623035
-0.910701
-0.163825
-0.576355
0.197081
-0.224699
0.051561
0.176612
0.841398
0.840936
1.45204
1.38568
1.55241
1.16724
1.87693
1.41499
1.16356
0.696026
1.93609
1.80145
1.44294
1.14633
1.24528
1.53356
0.820271
0.35165
0.469636
0.447369
0.0548637
-0.920852
-1.28791
-0.965287
-0.586438
-0.245252
0.567098
0.347209
-0.423268
0.274225
0.573994
0.983458
0.470909
0.98325
1.29292
1.66087
1.92244
0.192239
-0.588607
-1.21732
-0.366759
-0.363799
-0.394144
-0.405755
-0.625712
0.558212
0.00614683
-0.149104
0.0858985
0.247137
0.629659
1.51924
1.26715
1.07544
1.36872
1.71568
2.52643
1.55876
1.53212
1.32807
0.813262
1.06909
0.474226
0.693823
0.904716
0.838435
1.45424
0.793434
0.97676
0.703579
-0.0457081
-0.285296
-0.778367
-0.340907
-0.126898
0.402336
0.0805113
0.307089
-0.349665
-0.141954
-0.247327
-0.474622
0.0940317
0.0135638
1.95678
2.06621
1.7618
1.23023
0.54796
0.241399
-0.535746
0.344033
0.159414
-0.587536
-0.494699
0.095702
0.290928
0.560274
0.118495
0.01642
0.362145
1.15828
1.59666
1.41579
1.15598
2.11641
1.90288
2.19254
1.95725
0.767232
0.498865
0.4826
0.277853
-0.240723
0.508417
0.340946
1.03752
0.725095
0.584948
0.755564
0.680305
0.440399
0.278965
-0.403215
0.448007
1.02306
1.02466
0.712071
0.235929
0.0194527
-0.349167
-0.199425
0.000611585
-0.543776
0.656832
0.716693
0.656798
1.1456
1.37959
-0.150278
0.288743
-0.403888
0.443731
0.395911
-0.519135
-0.406488
-0.360262
0.246134
-0.223733
0.416136
0.494699