# vtk DataFile Version 3.0
vtk output
ASCII
DATASET UNSTRUCTURED_GRID
POINTS      16224 float
 0.00000000e+00  0.00000000e+00  0.00000000e+00
 1.00000000e+01  0.00000000e+00  0.00000000e+00
 2.00000000e+01  0.00000000e+00  0.00000000e+00
 3.00000000e+01  0.00000000e+00  0.00000000e+00
 4.00000000e+01  0.00000000e+00  0.00000000e+00
 5.00000000e+01  0.00000000e+00  0.00000000e+00
 6.00000000e+01  0.00000000e+00  0.00000000e+00
 7.00000000e+01  0.00000000e+00  0.00000000e+00
 8.00000000e+01  0.00000000e+00  0.00000000e+00
 9.00000000e+01  0.00000000e+00  0.00000000e+00
 1.00000000e+02  0.00000000e+00  0.00000000e+00
 1.10000000e+02  0.00000000e+00  0.00000000e+00
 1.20000000e+02  0.00000000e+00  0.00000000e+00
 1.30000000e+02  0.00000000e+00  0.00000000e+00
 1.40000000e+02  0.00000000e+00  0.00000000e+00
 1.50000000e+02  0.00000000e+00  0.00000000e+00
 1.60000000e+02  0.00000000e+00  0.00000000e+00
 1.70000000e+02  0.00000000e+00  0.00000000e+00
 1.80000000e+02  0.00000000e+00  0.00000000e+00
 1.90000000e+02  0.00000000e+00  0.00000000e+00
 2.00000000e+02  0.00000000e+00  0.00000000e+00
 2.10000000e+02  0.00000000e+00  0.00000000e+00
 2.20000000e+02  0.00000000e+00  0.00000000e+00
 2.30000000e+02  0.00000000e+00  0.00000000e+00
 2.40000000e+02  0.00000000e+00  0.00000000e+00
 2.50000000e+02  0.00000000e+00  0.00000000e+00
 2.60000000e+02  0.00000000e+00  0.00000000e+00
 2.70000000e+02  0.00000000e+00  0.00000000e+00
 2.80000000e+02  0.00000000e+00  0.00000000e+00
 2.90000000e+02  0.00000000e+00  0.00000000e+00
 3.00000000e+02  0.00000000e+00  0.00000000e+00
 3.10000000e+02  0.00000000e+00  0.00000000e+00
 3.20000000e+02  0.00000000e+00  0.00000000e+00
 3.30000000e+02  0.00000000e+00  0.00000000e+00
 3.40000000e+02  0.00000000e+00  0.00000000e+00
 3.50000000e+02  0.00000000e+00  0.00000000e+00
 3.60000000e+02  0.00000000e+00  0.00000000e+00
 3.70000000e+02  0.00000000e+00  0.00000000e+00
 3.80000000e+02  0.00000000e+00  0.00000000e+00
 3.90000000e+02  0.00000000e+00  0.00000000e+00
 4.00000000e+02  0.00000000e+00  0.00000000e+00
 4.10000000e+02  0.00000000e+00  0.00000000e+00
 4.20000000e+02  0.00000000e+00  0.00000000e+00
 4.30000000e+02  0.00000000e+00  0.00000000e+00
 4.40000000e+02  0.00000000e+00  0.00000000e+00
 4.50000000e+02  0.00000000e+00  0.00000000e+00
 4.60000000e+02  0.00000000e+00  0.00000000e+00
 4.70000000e+02  0.00000000e+00  0.00000000e+00
 4.80000000e+02  0.00000000e+00  0.00000000e+00
 4.90000000e+02  0.00000000e+00  0.00000000e+00
 5.00000000e+02  0.00000000e+00  0.00000000e+00
 5.10000000e+02  0.00000000e+00  0.00000000e+00
 0.00000000e+00  1.00000000e+01  0.00000000e+00
 1.00000000e+01  1.00000000e+01  0.00000000e+00
 2.00000000e+01  1.00000000e+01  0.00000000e+00
 3.00000000e+01  1.00000000e+01  0.00000000e+00
 4.00000000e+01  1.00000000e+01  0.00000000e+00
 5.00000000e+01  1.00000000e+01  0.00000000e+00
 6.00000000e+01  1.00000000e+01  0.00000000e+00
 7.00000000e+01  1.00000000e+01  0.00000000e+00
 8.00000000e+01  1.00000000e+01  0.00000000e+00
 9.00000000e+01  1.00000000e+01  0.00000000e+00
 1.00000000e+02  1.00000000e+01  0.00000000e+00
 1.10000000e+02  1.00000000e+01  0.00000000e+00
 1.20000000e+02  1.00000000e+01  0.00000000e+00
 1.30000000e+02  1.00000000e+01  0.00000000e+00
 1.40000000e+02  1.00000000e+01  0.00000000e+00
 1.50000000e+02  1.00000000e+01  0.00000000e+00
 1.60000000e+02  1.00000000e+01  0.00000000e+00
 1.70000000e+02  1.00000000e+01  0.00000000e+00
 1.80000000e+02  1.00000000e+01  0.00000000e+00
 1.90000000e+02  1.00000000e+01  0.00000000e+00
 2.00000000e+02  1.00000000e+01  0.00000000e+00
 2.10000000e+02  1.00000000e+01  0.00000000e+00
 2.20000000e+02  1.00000000e+01  0.00000000e+00
 2.30000000e+02  1.00000000e+01  0.00000000e+00
 2.40000000e+02  1.00000000e+01  0.00000000e+00
 2.50000000e+02  1.00000000e+01  0.00000000e+00
 2.60000000e+02  1.00000000e+01  0.00000000e+00
 2.70000000e+02  1.00000000e+01  0.00000000e+00
 2.80000000e+02  1.00000000e+01  0.00000000e+00
 2.90000000e+02  1.00000000e+01  0.00000000e+00
 3.00000000e+02  1.00000000e+01  0.00000000e+00
 3.10000000e+02  1.00000000e+01  0.00000000e+00
 3.20000000e+02  1.00000000e+01  0.00000000e+00
 3.30000000e+02  1.00000000e+01  0.00000000e+00
 3.40000000e+02  1.00000000e+01  0.00000000e+00
 3.50000000e+02  1.00000000e+01  0.00000000e+00
 3.60000000e+02  1.00000000e+01  0.00000000e+00
 3.70000000e+02  1.00000000e+01  0.00000000e+00
 3.80000000e+02  1.00000000e+01  0.00000000e+00
 3.90000000e+02  1.00000000e+01  0.00000000e+00
 4.00000000e+02  1.00000000e+01  0.00000000e+00
 4.10000000e+02  1.00000000e+01  0.00000000e+00
 4.20000000e+02  1.00000000e+01  0.00000000e+00
 4.30000000e+02  1.00000000e+01  0.00000000e+00
 4.40000000e+02  1.00000000e+01  0.00000000e+00
 4.50000000e+02  1.00000000e+01  0.00000000e+00
 4.60000000e+02  1.00000000e+01  0.00000000e+00
 4.70000000e+02  1.00000000e+01  0.00000000e+00
 4.80000000e+02  1.00000000e+01  0.00000000e+00
 4.90000000e+02  1.00000000e+01  0.00000000e+00
 5.00000000e+02  1.00000000e+01  0.00000000e+00
 5.10000000e+02  1.00000000e+01  0.00000000e+00
 0.00000000e+00  2.00000000e+01  0.00000000e+00
 1.00000000e+01  2.00000000e+01  0.00000000e+00
 2.00000000e+01  2.00000000e+01  0.00000000e+00
 3.00000000e+01  2.00000000e+01  0.00000000e+00
 4.00000000e+01  2.00000000e+01  0.00000000e+00
 5.00000000e+01  2.00000000e+01  0.00000000e+00
 6.00000000e+01  2.00000000e+01  0.00000000e+00
 7.00000000e+01  2.00000000e+01  0.00000000e+00
 8.00000000e+01  2.00000000e+01  0.00000000e+00
 9.00000000e+01  2.00000000e+01  0.00000000e+00
 1.00000000e+02  2.00000000e+01  0.00000000e+00
 1.10000000e+02  2.00000000e+01  0.00000000e+00
 1.20000000e+02  2.00000000e+01  0.00000000e+00
 1.30000000e+02  2.00000000e+01  0.00000000e+00
 1.40000000e+02  2.00000000e+01  0.00000000e+00
 1.50000000e+02  2.00000000e+01  0.00000000e+00
 1.60000000e+02  2.00000000e+01  0.00000000e+00
 1.70000000e+02  2.00000000e+01  0.00000000e+00
 1.80000000e+02  2.00000000e+01  0.00000000e+00
 1.90000000e+02  2.00000000e+01  0.00000000e+00
 2.00000000e+02  2.00000000e+01  0.00000000e+00
 2.10000000e+02  2.00000000e+01  0.00000000e+00
 2.20000000e+02  2.00000000e+01  0.00000000e+00
 2.30000000e+02  2.00000000e+01  0.00000000e+00
 2.40000000e+02  2.00000000e+01  0.00000000e+00
 2.50000000e+02  2.00000000e+01  0.00000000e+00
 2.60000000e+02  2.00000000e+01  0.00000000e+00
 2.70000000e+02  2.00000000e+01  0.00000000e+00
 2.80000000e+02  2.00000000e+01  0.00000000e+00
 2.90000000e+02  2.00000000e+01  0.00000000e+00
 3.00000000e+02  2.00000000e+01  0.00000000e+00
 3.10000000e+02  2.00000000e+01  0.00000000e+00
 3.20000000e+02  2.00000000e+01  0.00000000e+00
 3.30000000e+02  2.00000000e+01  0.00000000e+00
 3.40000000e+02  2.00000000e+01  0.00000000e+00
 3.50000000e+02  2.00000000e+01  0.00000000e+00
 3.60000000e+02  2.00000000e+01  0.00000000e+00
 3.70000000e+02  2.00000000e+01  0.00000000e+00
 3.80000000e+02  2.00000000e+01  0.00000000e+00
 3.90000000e+02  2.00000000e+01  0.00000000e+00
 4.00000000e+02  2.00000000e+01  0.00000000e+00
 4.10000000e+02  2.00000000e+01  0.00000000e+00
 4.20000000e+02  2.00000000e+01  0.00000000e+00
 4.30000000e+02  2.00000000e+01  0.00000000e+00
 4.40000000e+02  2.00000000e+01  0.00000000e+00
 4.50000000e+02  2.00000000e+01  0.00000000e+00
 4.60000000e+02  2.00000000e+01  0.00000000e+00
 4.70000000e+02  2.00000000e+01  0.00000000e+00
 4.80000000e+02  2.00000000e+01  0.00000000e+00
 4.90000000e+02  2.00000000e+01  0.00000000e+00
 5.00000000e+02  2.00000000e+01  0.00000000e+00
 5.10000000e+02  2.00000000e+01  0.00000000e+00
 0.00000000e+00  3.00000000e+01  0.00000000e+00
 1.00000000e+01  3.00000000e+01  0.00000000e+00
 2.00000000e+01  3.00000000e+01  0.00000000e+00
 3.00000000e+01  3.00000000e+01  0.00000000e+00
 4.00000000e+01  3.00000000e+01  0.00000000e+00
 5.00000000e+01  3.00000000e+01  0.00000000e+00
 6.00000000e+01  3.00000000e+01  0.00000000e+00
 7.00000000e+01  3.00000000e+01  0.00000000e+00
 8.00000000e+01  3.00000000e+01  0.00000000e+00
 9.00000000e+01  3.00000000e+01  0.00000000e+00
 1.00000000e+02  3.00000000e+01  0.00000000e+00
 1.10000000e+02  3.00000000e+01  0.00000000e+00
 1.20000000e+02  3.00000000e+01  0.00000000e+00
 1.30000000e+02  3.00000000e+01  0.00000000e+00
 1.40000000e+02  3.00000000e+01  0.00000000e+00
 1.50000000e+02  3.00000000e+01  0.00000000e+00
 1.60000000e+02  3.00000000e+01  0.00000000e+00
 1.70000000e+02  3.00000000e+01  0.00000000e+00
 1.80000000e+02  3.00000000e+01  0.00000000e+00
 1.90000000e+02  3.00000000e+01  0.00000000e+00
 2.00000000e+02  3.00000000e+01  0.00000000e+00
 2.10000000e+02  3.00000000e+01  0.00000000e+00
 2.20000000e+02  3.00000000e+01  0.00000000e+00
 2.30000000e+02  3.00000000e+01  0.00000000e+00
 2.40000000e+02  3.00000000e+01  0.00000000e+00
 2.50000000e+02  3.00000000e+01  0.00000000e+00
 2.60000000e+02  3.00000000e+01  0.00000000e+00
 2.70000000e+02  3.00000000e+01  0.00000000e+00
 2.80000000e+02  3.00000000e+01  0.00000000e+00
 2.90000000e+02  3.00000000e+01  0.00000000e+00
 3.00000000e+02  3.00000000e+01  0.00000000e+00
 3.10000000e+02  3.00000000e+01  0.00000000e+00
 3.20000000e+02  3.00000000e+01  0.00000000e+00
 3.30000000e+02  3.00000000e+01  0.00000000e+00
 3.40000000e+02  3.00000000e+01  0.00000000e+00
 3.50000000e+02  3.00000000e+01  0.00000000e+00
 3.60000000e+02  3.00000000e+01  0.00000000e+00
 3.70000000e+02  3.00000000e+01  0.00000000e+00
 3.80000000e+02  3.00000000e+01  0.00000000e+00
 3.90000000e+02  3.00000000e+01  0.00000000e+00
 4.00000000e+02  3.00000000e+01  0.00000000e+00
 4.10000000e+02  3.00000000e+01  0.00000000e+00
 4.20000000e+02  3.00000000e+01  0.00000000e+00
 4.30000000e+02  3.00000000e+01  0.00000000e+00
 4.40000000e+02  3.00000000e+01  0.00000000e+00
 4.50000000e+02  3.00000000e+01  0.00000000e+00
 4.60000000e+02  3.00000000e+01  0.00000000e+00
 4.70000000e+02  3.00000000e+01  0.00000000e+00
 4.80000000e+02  3.00000000e+01  0.00000000e+00
 4.90000000e+02  3.00000000e+01  0.00000000e+00
[...]
CELL_DATA      13005
SCALARS log(K) double
LOOKUP_TABLE default
1.0586
1.15984
1.37077
1.90725
2.04749
1.66123
1.76837
2.02511
0.632539
0.162217
-0.267637
-0.0721262
-0.156236
-0.383328
-0.936592
-0.715661
-0.280475
-0.67472
0.247703
-0.125486
0.17876
0.787129
0.741541
0.636949
-0.496412
-1.33062
-1.05328
-0.366064
-0.114453
0.381112
0.359857
0.390123
-0.395121
-0.684567
-0.742211
0.401693
-0.523407
0.164391
4.85749e-05
0.442738
0.870644
0.0549655
-0.498429
-0.281547
0.598437
-0.231129
0.215549
0.981048
0.532435
0.724908
-0.293535
0.854291
0.757189
1.81519
1.30489
1.27291
1.04972
1.2554
1.25108
0.437143
-0.0999021
1.13397
0.945597
1.02148
-0.232411
-0.907544
-1.28704
-0.824127
0.192086
0.290928
-0.691244
-1.06548
0.316605
0.953817
0.708132
0.594625
-0.17979
0.3365
-0.137074
-0.0131164
-0.167944
0.868459
0.228423
-0.0601339
0.376984
-0.274214
-0.562877
-1.10898
-0.968766
0.114045
0.168418
0.843494
-0.0436976
-0.999142
0.369748
0.758523
0.50982
1.00133
0.230168
1.41027
-0.176188
-0.531063
0.357074
1.10353
1.82194
0.907002
1.57592
0.772587
0.858126
1.36979
0.0621668
0.927881
1.36123
1.02668
0.77323
-0.331073
-0.759789
-0.802149
-0.853356
-0.898353
-0.394414
-0.285075
-0.604427
-0.106339
1.76329
1.08896
0.815172
0.764412
0.871586
0.160929
-0.0959357
0.671437
0.841224
0.364092
0.596082
-0.36419
-0.540893
-0.880137
-1.11015
-1.16454
-0.732108
0.419506
0.446374
0.481093
0.0617482
0.527556
0.0509543
-0.11356
-0.11901
0.251973
0.390928
-0.157232
-0.274359
1.16527
1.34146
1.59793
1.36672
1.14761
1.0787
1.46521
1.28628
0.931438
0.892561
2.01549
1.18106
1.07924
0.236444
-1.02667
-0.271071
-0.723641
-0.879682
-0.220817
-0.250846
0.0746283
0.901896
0.394126
1.23105
1.4287
2.15432
1.81693
1.5658
1.16549
0.961549
1.20121
1.12753
0.724835
0.0349987
-0.104193
0.195346
-0.464357
-0.921232
-0.326673
-0.486721
0.119385
0.490386
0.167554
1.23329
0.616878
-0.109081
-0.122479
-0.288699
-0.246464
0.135653
0.396033
1.95106
1.89315
1.66941
1.36963
1.53686
1.11993
1.13559
1.5939
0.694029
0.963705
1.21648
1.41768
1.01301
0.550838
-0.436316
-0.265256
-0.601995
-0.763142
-0.418597
0.459347
0.383187
0.484667
-0.385303
1.12326
1.24978
1.55036
1.80656
0.892772
0.523014
1.01723
1.19656
0.0582646
0.610339
0.948339
-0.150312
-0.275137
-0.649032
-0.660012
-0.670888
0.181494
0.123064
0.443732
0.968602
0.783148
0.128711
-0.252899
-0.261803
-0.0601564
0.130504
-0.368234
-0.608857
1.54755
1.18229
1.56058
1.49303
1.99735
0.52429
0.682232
0.613324
0.81385
0.520316
0.999864
1.21391
1.32025
1.18869
0.132295
-0.0266538
-0.643739
-0.443214
0.603381
0.486564
0.767562
0.601999
-0.0153861
0.113289
-0.0909866
0.634606
0.649717
1.09525
0.941379
0.678046
0.276402
0.545928
0.676829
1.66541
0.422527
0.0761604
0.585084
0.755542
-0.506126
-1.2735
-0.194395
0.754291
0.760092
1.05593
1.02217
0.0289373
-0.299801
-0.891952
-0.311708
-0.663774
-0.206208
0.858764
2.03467
1.52414
1.67683
1.96768
1.23419
0.886766
1.34824
0.897527
-0.0222608
0.00131888
0.681799
1.23366
0.705991
0.421732
0.265401
-0.494592
-0.548502
0.678152
0.633429
1.18403
-0.00896683
-1.11705
-0.0159737
0.119481
0.354838
0.685859
0.147493
-0.179393
0.794182
0.62467
-0.507606
0.203948
0.511909
-0.0856154
0.387878
1.18741
0.360668
0.0467078
-0.551081
-0.03154
-0.0151994
0.780179
1.16011
0.540702
-0.147255
0.0603648
-0.519326
-0.865763
0.147292
-0.900671
0.44972
1.00377
0.920403
2.20021
1.42631
0.685773
0.403055
1.0884
0.977817
0.971862
0.402768
-0.256039
0.478768
0.00750434
0.0314348
0.709031
1.37306
-0.0607026
1.02055
0.0168451
0.196809
0.464082
0.345714
-0.663904
0.0751069
0.735161
0.653788
0.411766
0.463866
0.474459
0.893776
-0.156796
0.361503
0.794808
0.614998
0.826482
1.38909
1.80212
0.562617
0.343022
-0.109547
0.453669
0.280263
-0.241834
-0.215472
0.382742
0.873124
-0.345072
-0.796635
0.127477
-0.15372
0.755323
0.571507
1.35735
1.13703
1.2318
0.287762
0.538329
1.25785
1.25744
0.69024
0.846226
-0.0704536
0.204558
0.468756
-0.241052
0.548701
1.77621
1.74071
0.768525
0.546004
0.834236
0.483489
-0.12189
-0.811858
0.0014983
0.24258
1.18425
0.490327
-0.164623
0.658028
1.04318
0.515966
-0.0676773
-0.222992
-0.0687587
1.10303
1.3634
1.39533
0.839133
0.340856
0.176662
0.0616697
-0.658364
0.170176
0.685212
0.566781
0.471422
0.190361
0.358816
0.536349
0.781115
0.328752
0.490419
0.966913
2.28046
1.01013
0.616591
0.493464
1.03381
0.517845
0.517667
0.559412
0.335391
0.502189
0.682327
1.22198
1.592
0.58084
0.357892
0.62878
0.988672
0.34789
0.659113
0.0362776
-0.346218
-0.219063
0.745948
1.01572
0.174243
-0.34297
0.561793
1.30195
-0.212446
-0.14347
-0.143713
0.562911
0.996824
1.46209
0.334524
0.0576117
0.0977494
0.0823622
0.449206
0.151751
0.334945
1.11068
0.561508
0.392903
-0.507153
0.385304
0.827315
0.832732
0.534261
0.758337
0.723873
0.674905
0.89959
1.01361
1.03336
1.1722
0.385105
0.263877
-0.496203
0.647362
0.791847
1.26038
1.09113
1.51427
0.533929
1.11726
0.771035
1.52208
0.379048
0.558945
0.196205
-0.0144637
0.20436
0.653357
0.178744
-0.45505
-0.0173005
0.344049
0.406659
0.170068
1.28226
0.463066
-0.390951
0.855542
0.772974
0.603305
0.722877
0.416854
0.634324
0.0411345
0.292816
0.533341
0.0378275
0.0718331
0.563332
0.305219
-0.2343
0.915108
0.465218
-0.486377
0.171889
-0.059732
0.396385
1.25094
0.468036
-0.132081
0.789746
0.45027
0.0920017
-0.229311
-0.0967958
0.595045
1.11934
1.34879
0.381393
0.608131
0.648351
1.41858
1.39461
1.02866
0.809133
0.623612
-0.141843
0.336315
0.291966
0.0100244
0.179153
1.04697
0.55064
0.841842
0.255189
0.418438
0.045324
0.0242484
-0.0578178
0.34144
0.616443
0.38427
0.675967
1.21269
0.865826
0.610236
0.218976
-0.599732
-0.414914
0.231234
0.61661
0.247916
0.184989
0.980998
-0.54677
-1.02228
0.163057
0.748709
0.689063
0.635543
0.171399
0.77007
1.08796
0.976182
0.415336
-0.0631793
0.0922492
1.04362
1.3528
0.0850981
0.631167
1.29807
0.892969
1.06663
-0.0352946
-0.189282
1.03088
1.92126
0.783096
0.0568816
0.391709
0.993763
1.49753
0.748493
0.524658
-0.0775005
0.581037
0.414591
-0.12897
0.275016
0.0640287
0.590299
-0.654093
0.29439
1.02193
1.4232
0.435065
-0.365033
-0.125726
-0.465798
0.138067
-0.11488
-0.250257
-0.380573
0.121456
-0.561854
0.182454
-0.304846
0.214463
0.313985
0.778045
0.722352
0.366898
0.971622
1.61223
1.2821
0.993866
1.13305
1.35094
1.56231
0.247977
0.665124
1.64554
0.884251
0.833621
0.466635
0.34751
1.09154
0.984271
1.41401
-0.366824
0.328291
0.57058
0.303294
0.0925447
0.723128
-0.578187
-0.102248
0.240154
0.541028
0.172614
-0.464683
-0.226091
-0.169595
0.209339
0.436458
1.12113
0.0838103
-0.548494
-1.73705
-1.18075
-0.654125
-0.856606
0.172311
-0.165627
-0.511114
-0.583465
-0.544151
-0.363438
-0.424052
-0.122002
0.691009
0.499069
0.69509
1.59625
1.20348
0.707198
0.900328
0.654674
-0.14174
0.170888
0.654443
1.2127
1.35103
0.374921
0.1728
1.069
1.09642
1.09173
1.08467
0.252074
-0.288102
-0.887303
-0.463551
0.393867
0.068314
-0.940732
-0.4678
-0.17777
-1.31848
-1.15788
-0.309611
-0.40381
-0.504932
-0.673901
-0.159563
0.46297
0.541335
0.173711
-1.04805
-2.09778
-1.19196
-0.853292
-0.695543
-1.01608
-1.10117
-0.811662
-0.168192
0.114601
-0.20907
-1.24283
-0.218236
1.02492
1.64323
1.35494
1.40192
0.954468
1.02236
0.532405
0.272936
-0.525651
-0.741674
0.528818
-0.000377263
0.0801216
-0.137566
0.302546
0.79088
0.856085
1.35231
1.42687
0.390119
0.412854
-0.0609485
-0.547982
-0.244453
-0.029886
-0.283555
-0.747992
0.00699537
-1.85625
-0.91278
0.0898273
-0.679704
-0.800533
-0.992367
0.243029
-0.172213
-0.937265
-0.582418
-1.59905
-1.75101
-2.02782
-1.02238
-0.648266
-1.82205
-1.53026
-0.984339
0.0128807
-0.216704
-0.620316
-1.04389
0.225
0.936167
0.702744
1.34638
1.50762
1.13395
0.32568
0.180245
-0.714751
-0.967563
-0.880495
-0.762605
0.120516
-0.0346725
-0.396045
-0.299959
0.791436
0.902042
1.00099
0.380479
-0.0417749
-0.0491269
0.197001
-0.0800781
0.180345
-0.101824
0.321261
0.825414
-0.478022
-0.826923
-0.607685
-0.6637
-1.41568
-1.5925
-1.34541
-1.27532
-0.465862
-0.346084
-1.18943
-2.42808
-2.15229
-1.66113
-0.964241
-1.44769
-0.686693
-1.08596
-1.33659
-0.063024
0.214081
-0.289071
-0.388645
0.489187
1.1334
0.635624
1.31457
2.26223
2.04719
0.334783
-0.0221563
0.0888554
-0.435757
-0.417527
-0.628524
0.328651
0.413484
-0.549203
-0.325672
0.703316
0.577625
0.096411
-0.0277629
0.86057
0.991825
0.879458
0.389923
-0.450964
0.0301895
0.0558855
0.228099
-0.0281653
0.234791
-0.372541
-0.937182
-1.38445
-0.959534
-1.56219
-1.33737
-1.27098
-0.753125
-2.01802
-3.27006
-2.19008
-1.58569
-0.48038
-1.02781
-1.4469
-1.63771
-0.903505
-1.01107
-0.30624
-0.624172
-0.07987
1.01315
0.658877
1.34634
1.0383
1.82476
1.15961
0.696249
0.568482
-0.0298343
0.352079
-0.0977664
-0.841092
-0.52987
0.0439456
0.622886
0.568543
0.971926
0.972124
0.99903
0.480938
1.15966
0.698922
0.964591
-0.475358
-0.71831
-0.334436
0.0134665
-0.00841353
0.221506
-0.0801435
-0.725449
-1.49255
-1.49992
-0.122831
-1.21329
-1.42658
-0.540761
-1.52788
-1.9068
-2.8842
-1.92556
-0.776816
-0.587084
-0.319829
-1.44387
-2.12874
-1.37415
-0.889886
-0.73017
-0.877168
0.196516
0.379289
0.587666
1.17074
1.2863
1.50254
1.85062
1.4334
0.308086
0.147214
-0.486088
0.344457
-0.230878
-0.449262
0.572082
0.920775
0.360447
0.66767
-0.310723
0.440452
0.395444
1.44279
0.851321
0.197225
0.0746229
0.0708499
-0.273595
-0.188617
0.198119
0.314964
0.889467
0.362442
-1.22382
-0.324164
-0.131366
-0.717954
-1.436
-0.57973
-1.73436
-2.25171
-1.44283
-0.518901
-0.323241
-0.669191
0.291011
0.0750886
-1.54339
-0.858584
-0.8735
-0.601306
0.0728048
0.494811
-0.239975
0.821346
1.31076
1.63649
1.50356
2.34554
1.67562
0.85747
-0.086034
0.00604515
-0.0162061
-0.6102
-0.99082
0.179868
0.64374
0.0469887
0.342842
0.210421
-0.852822
0.208657
0.387532
0.482814
-0.105706
-0.939127
-0.744961
0.0161613
0.731684
0.130995
0.684702
0.674621
-0.148747
-0.491411
-0.29481
-0.0124667
-0.904721
-0.883902
-1.29011
-1.50782
-1.31449
-1.36312
-0.227741
-1.05204
-0.242213
-0.218302
0.0884924
0.0587206
-0.530678
-0.523278
-0.512597
-0.234093
0.666302
1.3279
0.961333
0.963884
1.42969
1.20642
1.50022
1.65063
0.0689227
-0.323695
0.567109
-0.192107
-0.410632
-0.852361
-0.614862
0.0244755
-0.249701
-0.429532
-0.491749
0.508451
-0.0374731
0.807824
0.268851
-0.266966
-1.10065
-0.767681
0.445987
1.05444
0.398125
0.153134
0.0214483
-0.487399
-0.989412
0.319646
-0.396606
-1.27382
-1.21434
-2.28491
-2.33918
-1.94918
-0.801621
-0.587908
-1.11146
-1.39167
-1.34557
-0.128378
0.292381
-0.376473
0.105877
-0.231314
-1.14219
-0.252826
0.842273
0.950181
0.333178
0.161986
0.708877
0.491205
0.11776
0.6205
0.341981
0.232327
0.822824
0.82492
-0.293143
-0.982401
-0.264174
-0.00862388
-1.00518
-0.509797
0.586577
0.483044
0.761018
0.192188
0.593554
0.648062
0.0980014
0.8222
0.673428
0.790259
0.26552
-0.116636
-0.953669
-1.48851
-0.4831
-0.550983
-1.71846
-1.14486
-1.3908
-1.39855
-1.07971
-1.35821
-1.84788
-1.20135
-1.49897
-0.447504
0.06469
1.42322
0.34037
-0.525369
-0.750378
-0.863148
-0.294307
0.737967
1.50255
0.186411
0.346552
1.5137
0.470864
-0.163071
-0.0846579
0.426072
0.380736
0.257949
0.398458
-0.293985
-1.20193
-0.204234
-0.551469
-0.76877
0.0900242
0.407263
0.419521
0.110417
0.224801
0.132337
0.65132
0.0151459
0.693765
0.202257
0.144372
-0.525446
-0.663066
-1.73612
-1.40733
-1.50026
-0.937398
-0.870129
-1.34939
-0.800238
-1.02624
-1.13524
-0.596052
-1.09481
-1.52454
-0.287896
-0.516023
-0.200673
0.441789
1.08473
0.614761
-0.684492
-0.392552
-0.209823
-0.141362
0.557963
0.929953
1.15703
1.97328
1.15639
-0.104665
0.561199
0.269423
0.346567
-0.151213
0.060437
-0.0354238
-0.883316
-1.00824
-0.509324
-1.33118
-0.879549
-0.77385
-0.636596
-0.372807
-1.32306
-0.264523
1.0551
0.136289
0.0478057
0.138367
-0.50385
-0.280963
-1.71794
-2.17674
-2.40297
-1.41877
-1.7038
-1.19038
-1.42581
-1.73336
-1.09954
-1.65514
-1.09583
-1.48575
-1.39595
0.0218361
-0.398247
0.0349371
0.491875
0.640394
0.694223
-1.23395
-0.988703
-0.350506
0.459243
0.570846
1.50015
1.38217
1.00963
0.0268721
-0.113181
0.307515
0.284593
-1.22934
-0.810838
0.0341458
-1.07366
-1.10059
-1.39996
-1.75134
-2.0329
-1.33381
-0.831081
-1.29201
-0.243107
-0.458019
-0.570612
-0.540504
-1.21884
-0.53438
0.361096
0.406591
-1.52583
-2.50149
-1.98249
-1.44408
-1.80977
-1.59015
-2.51793
-1.9252
-1.69232
-0.881684
-2.08876
-1.8539
-1.11826
-1.37575
-0.736902
-0.176963
0.737562
0.765048
0.966656
1.17941
0.25216
0.0511473
-0.388037
0.0674069
1.32081
1.37943
1.48457
0.55898
-0.0710436
-0.153346
-0.699399
-1.14623
-1.61504
-1.01005
-1.05057
-0.885112
-1.59557
-1.80516
-2.52452
-2.15993
-1.59677
-0.571399
-1.35516
-0.914231
-1.27098
-0.0849488
-1.05694
-1.2332
-0.695846
0.400648
-0.429971
-2.02564
-1.66741
-1.81615
-1.14009
-0.855495
-1.2527
-1.54668
-1.34143
-1.31248
-2.25025
-2.25397
-2.06512
-1.12201
-0.882559
-0.586492
-0.635939
-0.168932
0.826961
0.316064
1.08245
0.436834
-0.374194
-0.403707
0.766688
1.1961
1.95037
1.31057
1.12605
-0.197498
-1.26516
-1.4833
-1.66537
-0.982218
-0.848372
-1.37904
-1.82467
-1.99119
-1.95546
-1.9082
-2.85707
-1.58792
-1.00049
-1.66426
-1.78547
-2.23931
-0.970424
-1.60292
-0.909404
-1.82084
-0.802781
-0.383663
-1.13908
-1.30488
-2.02609
-1.05288
-0.69558
-0.563069
-1.364
-1.48335
-1.73404
-2.19367
-2.31448
-2.48545
-1.28469
-0.805058
-0.200739
-0.531816
0.0935325
0.4986
-0.0153551
-0.282862
-0.316096
-0.85273
0.178826
0.460366
0.655588
1.44636
1.36762
1.06676
0.617666
-1.52255
-1.88498
-1.95286
-1.59353
-0.370932
-1.13362
-1.33778
-1.09422
-1.83318
-2.07545
-2.25137
-1.17373
-1.70941
-1.64466
-1.12042
-1.87963
-1.90927
-1.23027
-0.992841
-0.969391
0.0986627
0.299454
-0.0960709
-0.237844
-0.570657
-0.997329
-1.2296
-1.31817
-0.356537
-1.40801
-1.08136
-1.02528
-2.02435
-1.5176
-1.33891
-1.45187
-0.984024
-0.650225
-0.496953
-0.188199
-1.17652
-0.579362
-0.36221
-0.0363566
0.280531
-0.167468
-0.498828
0.616197
1.14264
1.02563
1.39358
-0.321066
-0.472988
-0.371566
-0.411217
-0.7996
-1.11408
-0.703729
-1.40322
-2.22959
-1.33711
-0.835579
-1.58564
-1.46504
-1.27938
-1.3799
-1.6805
-1.57235
-1.42689
-0.470264
-0.84141
0.263398
0.0328249
-0.148401
-0.186265
-0.280019
-0.733237
-1.26176
-0.322541
-0.407581
-0.894006
-1.37988
-0.859306
-0.755761
-1.18584
-1.19491
-1.66869
-1.24609
-0.856165
-0.449123
-0.20696
-1.27015
-0.857912
0.149583
-0.229384
-0.171062
0.513769
-0.371094
0.533993
1.14484
0.887483
0.0275871
-0.468282
-0.651584
0.117889
-0.652969
-1.34994
-1.43654
-1.32124
-0.624278
-1.52419
-0.885393
-0.980018
-0.403046
-1.03248
-1.36771
-1.04757
-0.47349
-0.751866
-0.712073
-1.31527
-0.442427
0.12612
-0.0885896
0.401822
0.343057
-0.454551
-0.184804
-0.846325
-0.193373
-1.29662
-0.474852
0.00710714
0.274081
0.0962859
-0.368316
-1.39278
-0.10753
-1.20308
-0.865509
-2.02275
-1.46054
-1.75502
0.597689
-0.182977
0.128478
-0.486636
-0.654762
-0.480696
0.378206
0.178759
0.442349
0.173192
-1.07734
-0.815919
-0.869292
-1.2409
-1.45124
-0.957393
-0.896387
-1.00179
-0.275119
-0.418971
-0.896721
-1.04384
-0.464183
-0.551157
-1.02725
-1.03545
-0.59095
-0.893276
-0.799192
-0.118902
-0.270263
0.710824
0.600791
0.662065
0.298804
0.667471
0.00920206
-0.205314
0.371713
0.251459
-0.0689012
0.23132
0.235974
-0.500104
-0.143647
-0.350669
-1.42466
-2.18751
-2.54853
-1.65254
-2.47736
1.29513
0.476935
0.247385
-0.553954
-1.19233
-1.08554
-0.215391
0.0565563
-0.695756
-0.431479
-1.38814
-1.42666
-1.77632
-1.22737
-1.65946
-1.13041
-1.04588
-1.0292
-0.673822
0.167646
0.265717
0.102467
0.212006
-0.650779
-1.07527
-0.49113
-0.362607
-0.43955
-0.811813
0.304547
-0.220258
0.898096
0.196809
-0.0826016
0.455954
1.71508
0.417887
-0.0561869
0.0968313
-0.674453
-0.750322
-0.237431
0.118005
-0.356955
-0.320124
-0.166911
-0.632872
-1.24128
-2.12215
-1.24896
-1.41367
1.53987
0.440182
-0.275938
-0.632775
-0.906396
-1.82943
-0.819864
-1.08059
-1.42746
-1.44399
-1.39642
-1.87955
-1.89377
-0.561493
-0.836751
-0.488893
-0.379287
-0.845366
0.0350632
0.270745
0.584347
1.26581
0.890923
0.320255
-0.615368
-0.90344
0.161836
-0.484264
-0.316812
-0.202884
0.311993
0.148747
-0.156257
0.182461
1.33796
0.636772
-0.192589
-0.226383
-0.470583
-0.567692
-0.451149
-1.19519
-1.26158
-0.0774288
-0.636455
0.325101
-0.25002
-1.40818
-1.5905
-1.07258
-1.50144
1.95233
0.400522
-0.624312
-0.755566
-1.28811
-0.822675
-0.667233
-1.49869
-2.01719
-2.70703
-2.0677
-2.16834
-2.02704
-1.14173
-0.718792
-1.00715
-0.918876
-0.58163
0.0132575
0.348752
0.556871
1.21944
1.86258
1.28408
0.628612
0.591251
0.635144
0.140875
-0.158667
-0.187885
-0.39045
-0.30893
0.507578
-0.0633118
0.300387
0.217798
-0.402472
-0.733485
-0.357992
0.117541
-1.18492
-0.891916
-1.30991
-0.180774
0.393204
0.383764
0.136052
0.138722
-0.563469
-1.12047
-1.74686
1.32397
0.354713
0.248194
-0.342209
-0.900601
-1.09522
-1.04331
-1.32855
-1.42704
-2.27724
-1.74962
-1.94983
-2.7723
-2.51454
-1.10928
-1.31243
-0.694191
-0.467847
0.331299
0.466922
0.834067
1.4077
1.51973
0.615608
0.541879
0.196151
0.639162
-0.0977811
0.00434012
0.0747192
0.174063
-0.481267
0.116745
0.0213222
0.479931
0.934943
0.711979
0.00783661
-0.0168445
-0.865959
-0.564229
-0.82059
-1.23891
0.0325056
0.761982
0.49484
-0.158685
0.245776
0.657576
-0.223547
-1.1531
1.39334
0.322517
-0.112481
0.567165
0.0178265
-1.00653
-1.63186
-1.99379
-2.34283
-2.43785
-2.49671
-2.76665
-2.5622
-2.21466
-2.0589
-1.15051
0.0174679
0.329886
0.570652
1.39194
1.33381
0.937238
1.9099
1.36727
0.499776
0.443473
0.706377
-0.461721
0.0784894
0.57392
-0.272216
0.0584267
0.135667
-0.0525808
1.38303
1.03863
0.613486
0.169324
0.273942
-0.426597
-0.461391
-0.628861
-0.456613
0.0621804
0.491279
0.934853
0.429884
0.610607
1.39623
-0.38731
-1.3569
0.863185
0.969874
0.300377
1.12369
1.034
-0.912215
-1.11378
-1.77896
-2.14291
-2.26262
-2.35018
-2.30054
-2.20536
-1.92303
-1.91499
-0.972523
-0.580609
0.431594
0.822836
1.45454
0.774903
0.891654
1.05768
-0.00375279
0.449403
0.338116
0.634882
0.936714
0.29601
0.191065
0.697286
0.303743
-0.141762
-0.670777
0.49753
0.690631
0.129126
-0.222202
1.18508
0.238573
0.300152
-0.618051
0.149191
1.15947
0.8816
0.266863
0.484527
0.370104
0.436832
-0.0623681
-0.527398
0.560301
-0.55306
-0.15944
0.559643
0.253956
-0.311994
-1.54812
-2.26999
-2.74405
-2.78369
-2.53027
-1.86791
-1.3957
-2.1007
-1.43334
-1.21863
-0.708397
-0.198784
0.901963
0.203973
0.30907
0.629294
0.188648
0.225471
1.17249
1.22007
0.755135
1.24079
0.799478
1.03078
0.114985
0.156661
0.305273
0.466205
-0.196672
0.160751
0.378992
0.251019
0.359051
0.591953
0.206746
0.287757
-0.0666906
0.383479
0.724107
-0.554498
0.510972
-0.25302
0.0347173
0.0189105
0.329088
0.127448
-0.0142354
0.207384
0.462656
0.111421
-1.30657
-2.80332
-2.23913
-2.29541
-2.76951
-2.3194
-1.01552
-0.895308
-1.61636
-0.908997
-0.62947
-0.128311
0.0481059
-0.410157
0.215212
0.208555
0.515651
1.00521
1.00962
1.49101
1.18675
1.21788
1.09863
1.94808
1.55297
0.31456
0.560442
-0.366531
0.121586
0.580753
0.316832
0.0147478
-0.030173
-0.517517
-0.248656
-0.334526
-0.498366
-0.815317
-0.695648
-0.878751
-0.257763
0.283605
-0.230188
-1.03434
-0.181256
-1.00702
0.343133
0.739383
0.214044
0.694888
-0.301127
-1.19542
-2.10264
-2.0575
-1.88384
-1.88704
-1.68911
-0.874747
-0.854441
-0.688012
-1.52987
-0.562209
-0.37085
0.364087
-0.00207769
0.00858146
-0.343863
-0.0719308
0.808
0.676744
0.788156
1.48149
1.99454
2.3086
1.81717
1.05864
0.162458
-0.125023
0.559453
-0.239305
0.109557
-0.321984
-0.239398
-0.302338
-0.796597
-0.591347
-0.664841
-1.81304
-1.02132
-0.437397
-0.241605
-0.425204
-0.446043
-0.430696
-1.07922
-1.15273
-1.29583
1.04366
0.31248
0.358451
0.394217
-0.230882
-0.649752
-1.17658
-2.30527
-2.08367
-1.67671
-1.00697
-0.921497
-0.445864
-0.88068
-0.518715
-0.280517
-0.297532
-0.810667
-0.198673
0.375403
-0.438164
-0.247037
-0.201038
0.691336
1.0633
1.98463
1.90807
1.7112
1.38199
1.31646
1.03615
0.0172688
0.0141701
0.336274
-0.285771
-0.674305
-0.909089
-0.485755
-1.11704
-0.640778
-0.579471
-1.06522
-1.13082
-0.349753
-0.0828631
-1.32795
-0.751771
-0.598887
-0.793842
-0.986562
-0.388165
1.4161
0.488408
0.301429
0.0376281
-0.137516
-0.0842867
-0.0840661
-0.813185
-2.89037
-1.49723
-1.75646
-1.54161
-0.648537
-0.691769
-0.206543
-0.934542
-0.986347
-1.68815
-1.14755
-0.692297
-0.77006
-0.506282
-0.0410757
0.761161
0.957672
2.11137
2.47133
1.91486
2.13055