# vtk DataFile Version 3.0
vtk output
ASCII
DATASET UNSTRUCTURED_GRID
POINTS      16224 float
 0.00000000e+00  0.00000000e+00  0.00000000e+00
 1.00000000e+01  0.00000000e+00  0.00000000e+00
 2.00000000e+01  0.00000000e+00  0.00000000e+00
 3.00000000e+01  0.00000000e+00  0.00000000e+00
 4.00000000e+01  0.00000000e+00  0.00000000e+00
 5.00000000e+01  0.00000000e+00  0.00000000e+00
 6.00000000e+01  0.00000000e+00  0.00000000e+00
 7.00000000e+01  0.00000000e+00  0.00000000e+00
 8.00000000e+01  0.00000000e+00  0.00000000e+00
 9.00000000e+01  0.00000000e+00  0.00000000e+00
 1.00000000e+02  0.00000000e+00  0.00000000e+00
 1.10000000e+02  0.00000000e+00  0.00000000e+00
 1.20000000e+02  0.00000000e+00  0.00000000e+00
 1.30000000e+02  0.00000000e+00  0.00000000e+00
 1.40000000e+02  0.00000000e+00  0.00000000e+00
 1.50000000e+02  0.00000000e+00  0.00000000e+00
 1.60000000e+02  0.00000000e+00  0.00000000e+00
 1.70000000e+02  0.00000000e+00  0.00000000e+00
 1.80000000e+02  0.00000000e+00  0.00000000e+00
 1.90000000e+02  0.00000000e+00  0.00000000e+00
 2.00000000e+02  0.00000000e+00  0.00000000e+00
 2.10000000e+02  0.00000000e+00  0.00000000e+00
 2.20000000e+02  0.00000000e+00  0.00000000e+00
 2.30000000e+02  0.00000000e+00  0.00000000e+00
 2.40000000e+02  0.00000000e+00  0.00000000e+00
 2.50000000e+02  0.00000000e+00  0.00000000e+00
 2.60000000e+02  0.00000000e+00  0.00000000e+00
 2.70000000e+02  0.00000000e+00  0.00000000e+00
 2.80000000e+02  0.00000000e+00  0.00000000e+00
 2.90000000e+02  0.00000000e+00  0.00000000e+00
 3.00000000e+02  0.00000000e+00  0.00000000e+00
 3.10000000e+02  0.00000000e+00  0.00000000e+00
 3.20000000e+02  0.00000000e+00  0.00000000e+00
 3.30000000e+02  0.00000000e+00  0.00000000e+00
 3.40000000e+02  0.00000000e+00  0.00000000e+00
 3.50000000e+02  0.00000000e+00  0.00000000e+00
 3.60000000e+02  0.00000000e+00  0.00000000e+00
 3.70000000e+02  0.00000000e+00  0.00000000e+00
 3.80000000e+02  0.00000000e+00  0.00000000e+00
 3.90000000e+02  0.00000000e+00  0.00000000e+00
 4.00000000e+02  0.00000000e+00  0.00000000e+00
 4.10000000e+02  0.00000000e+00  0.00000000e+00
 4.20000000e+02  0.00000000e+00  0.00000000e+00
 4.30000000e+02  0.00000000e+00  0.00000000e+00
 4.40000000e+02  0.00000000e+00  0.00000000e+00
 4.50000000e+02  0.00000000e+00  0.00000000e+00
 4.60000000e+02  0.00000000e+00  0.00000000e+00
 4.70000000e+02  0.00000000e+00  0.00000000e+00
 4.80000000e+02  0.00000000e+00  0.00000000e+00
 4.90000000e+02  0.00000000e+00  0.00000000e+00
 5.00000000e+02  0.00000000e+00  0.00000000e+00
 5.10000000e+02  0.00000000e+00  0.00000000e+00
 0.00000000e+00  1.00000000e+01  0.00000000e+00
 1.00000000e+01  1.00000000e+01  0.00000000e+00
 2.00000000e+01  1.00000000e+01  0.00000000e+00
 3.00000000e+01  1.00000000e+01  0.00000000e+00
 4.00000000e+01  1.00000000e+01  0.00000000e+00
 5.00000000e+01  1.00000000e+01  0.00000000e+00
 6.00000000e+01  1.00000000e+01  0.00000000e+00
 7.00000000e+01  1.00000000e+01  0.00000000e+00
 8.00000000e+01  1.00000000e+01  0.00000000e+00
 9.00000000e+01  1.00000000e+01  0.00000000e+00
 1.00000000e+02  1.00000000e+01  0.00000000e+00
 1.10000000e+02  1.00000000e+01  0.00000000e+00
 1.20000000e+02  1.00000000e+01  0.00000000e+00
 1.30000000e+02  1.00000000e+01  0.00000000e+00
 1.40000000e+02  1.00000000e+01  0.00000000e+00
 1.50000000e+02  1.00000000e+01  0.00000000e+00
 1.60000000e+02  1.00000000e+01  0.00000000e+00
 1.70000000e+02  1.00000000e+01  0.00000000e+00
 1.80000000e+02  1.00000000e+01  0.00000000e+00
 1.90000000e+02  1.00000000e+01  0.00000000e+00
 2.00000000e+02  1.00000000e+01  0.00000000e+00
 2.10000000e+02  1.00000000e+01  0.00000000e+00
 2.20000000e+02  1.00000000e+01  0.00000000e+00
 2.30000000e+02  1.00000000e+01  0.00000000e+00
 2.40000000e+02  1.00000000e+01  0.00000000e+00
 2.50000000e+02  1.00000000e+01  0.00000000e+00
 2.60000000e+02  1.00000000e+01  0.00000000e+00
 2.70000000e+02  1.00000000e+01  0.00000000e+00
 2.80000000e+02  1.00000000e+01  0.00000000e+00
 2.90000000e+02  1.00000000e+01  0.00000000e+00
 3.00000000e+02  1.00000000e+01  0.00000000e+00
 3.10000000e+02  1.00000000e+01  0.00000000e+00
 3.20000000e+02  1.00000000e+01  0.00000000e+00
 3.30000000e+02  1.00000000e+01  0.00000000e+00
 3.40000000e+02  1.00000000e+01  0.00000000e+00
 3.50000000e+02  1.00000000e+01  0.00000000e+00
 3.60000000e+02  1.00000000e+01  0.00000000e+00
 3.70000000e+02  1.00000000e+01  0.00000000e+00
 3.80000000e+02  1.00000000e+01  0.00000000e+00
 3.90000000e+02  1.00000000e+01  0.00000000e+00
 4.00000000e+02  1.00000000e+01  0.00000000e+00
 4.10000000e+02  1.00000000e+01  0.00000000e+00
 4.20000000e+02  1.00000000e+01  0.00000000e+00
 4.30000000e+02  1.00000000e+01  0.00000000e+00
 4.40000000e+02  1.00000000e+01  0.00000000e+00
 4.50000000e+02  1.00000000e+01  0.00000000e+00
 4.60000000e+02  1.00000000e+01  0.00000000e+00
 4.70000000e+02  1.00000000e+01  0.00000000e+00
 4.80000000e+02  1.00000000e+01  0.00000000e+00
 4.90000000e+02  1.00000000e+01  0.00000000e+00
 5.00000000e+02  1.00000000e+01  0.00000000e+00
 5.10000000e+02  1.00000000e+01  0.00000000e+00
 0.00000000e+00  2.00000000e+01  0.00000000e+00
 1.00000000e+01  2.00000000e+01  0.00000000e+00
 2.00000000e+01  2.00000000e+01  0.00000000e+00
 3.00000000e+01  2.00000000e+01  0.00000000e+00
 4.00000000e+01  2.00000000e+01  0.00000000e+00
 5.00000000e+01  2.00000000e+01  0.00000000e+00
 6.00000000e+01  2.00000000e+01  0.00000000e+00
 7.00000000e+01  2.00000000e+01  0.00000000e+00
 8.00000000e+01  2.00000000e+01  0.00000000e+00
 9.00000000e+01  2.00000000e+01  0.00000000e+00
 1.00000000e+02  2.00000000e+01  0.00000000e+00
 1.10000000e+02  2.00000000e+01  0.00000000e+00
 1.20000000e+02  2.00000000e+01  0.00000000e+00
 1.30000000e+02  2.00000000e+01  0.00000000e+00
 1.40000000e+02  2.00000000e+01  0.00000000e+00
 1.50000000e+02  2.00000000e+01  0.00000000e+00
 1.60000000e+02  2.00000000e+01  0.00000000e+00
 1.70000000e+02  2.00000000e+01  0.00000000e+00
 1.80000000e+02  2.00000000e+01  0.00000000e+00
 1.90000000e+02  2.00000000e+01  0.00000000e+00
 2.00000000e+02  2.00000000e+01  0.00000000e+00
 2.10000000e+02  2.00000000e+01  0.00000000e+00
 2.20000000e+02  2.00000000e+01  0.00000000e+00
 2.30000000e+02  2.00000000e+01  0.00000000e+00
 2.40000000e+02  2.00000000e+01  0.00000000e+00
 2.50000000e+02  2.00000000e+01  0.00000000e+00
 2.60000000e+02  2.00000000e+01  0.00000000e+00
 2.70000000e+02  2.00000000e+01  0.00000000e+00
 2.80000000e+02  2.00000000e+01  0.00000000e+00
 2.90000000e+02  2.00000000e+01  0.00000000e+00
 3.00000000e+02  2.00000000e+01  0.00000000e+00
 3.10000000e+02  2.00000000e+01  0.00000000e+00
 3.20000000e+02  2.00000000e+01  0.00000000e+00
 3.30000000e+02  2.00000000e+01  0.00000000e+00
 3.40000000e+02  2.00000000e+01  0.00000000e+00
 3.50000000e+02  2.00000000e+01  0.00000000e+00
 3.60000000e+02  2.00000000e+01  0.00000000e+00
 3.70000000e+02  2.00000000e+01  0.00000000e+00
 3.80000000e+02  2.00000000e+01  0.00000000e+00
 3.90000000e+02  2.00000000e+01  0.00000000e+00
 4.00000000e+02  2.00000000e+01  0.00000000e+00
 4.10000000e+02  2.00000000e+01  0.00000000e+00
 4.20000000e+02  2.00000000e+01  0.00000000e+00
 4.30000000e+02  2.00000000e+01  0.00000000e+00
 4.40000000e+02  2.00000000e+01  0.00000000e+00
 4.50000000e+02  2.00000000e+01  0.00000000e+00
 4.60000000e+02  2.00000000e+01  0.00000000e+00
 4.70000000e+02  2.00000000e+01  0.00000000e+00
 4.80000000e+02  2.00000000e+01  0.00000000e+00
 4.90000000e+02  2.00000000e+01  0.00000000e+00
 5.00000000e+02  2.00000000e+01  0.00000000e+00
 5.10000000e+02  2.00000000e+01  0.00000000e+00
 0.00000000e+00  3.00000000e+01  0.00000000e+00
 1.00000000e+01  3.00000000e+01  0.00000000e+00
 2.00000000e+01  3.00000000e+01  0.00000000e+00
 3.00000000e+01  3.00000000e+01  0.00000000e+00
 4.00000000e+01  3.00000000e+01  0.00000000e+00
 5.00000000e+01  3.00000000e+01  0.00000000e+00
 6.00000000e+01  3.00000000e+01  0.00000000e+00
 7.00000000e+01  3.00000000e+01  0.00000000e+00
 8.00000000e+01  3.00000000e+01  0.00000000e+00
 9.00000000e+01  3.00000000e+01  0.00000000e+00
 1.00000000e+02  3.00000000e+01  0.00000000e+00
 1.10000000e+02  3.00000000e+01  0.00000000e+00
 1.20000000e+02  3.00000000e+01  0.00000000e+00
 1.30000000e+02  3.00000000e+01  0.00000000e+00
 1.40000000e+02  3.00000000e+01  0.00000000e+00
 1.50000000e+02  3.00000000e+01  0.00000000e+00
 1.60000000e+02  3.00000000e+01  0.00000000e+00
 1.70000000e+02  3.00000000e+01  0.00000000e+00
 1.80000000e+02  3.00000000e+01  0.00000000e+00
 1.90000000e+02  3.00000000e+01  0.00000000e+00
 2.00000000e+02  3.00000000e+01  0.00000000e+00
 2.10000000e+02  3.00000000e+01  0.00000000e+00
 2.20000000e+02  3.00000000e+01  0.00000000e+00
 2.30000000e+02  3.00000000e+01  0.00000000e+00
 2.40000000e+02  3.00000000e+01  0.00000000e+00
 2.50000000e+02  3.00000000e+01  0.00000000e+00
 2.60000000e+02  3.00000000e+01  0.00000000e+00
 2.70000000e+02  3.00000000e+01  0.00000000e+00
 2.80000000e+02  3.00000000e+01  0.00000000e+00
 2.90000000e+02  3.00000000e+01  0.00000000e+00
 3.00000000e+02  3.00000000e+01  0.00000000e+00
 3.10000000e+02  3.00000000e+01  0.00000000e+00
 3.20000000e+02  3.00000000e+01  0.00000000e+00
 3.30000000e+02  3.00000000e+01  0.00000000e+00
 3.40000000e+02  3.00000000e+01  0.00000000e+00
 3.50000000e+02  3.00000000e+01  0.00000000e+00
 3.60000000e+02  3.00000000e+01  0.00000000e+00
 3.70000000e+02  3.00000000e+01  0.00000000e+00
 3.80000000e+02  3.00000000e+01  0.00000000e+00
 3.90000000e+02  3.00000000e+01  0.00000000e+00
 4.00000000e+02  3.00000000e+01  0.00000000e+00
 4.10000000e+02  3.00000000e+01  0.00000000e+00
 4.20000000e+02  3.00000000e+01  0.00000000e+00
 4.30000000e+02  3.00000000e+01  0.00000000e+00
 4.40000000e+02  3.00000000e+01  0.00000000e+00
 4.50000000e+02  3.00000000e+01  0.00000000e+00
 4.60000000e+02  3.00000000e+01  0.00000000e+00
 4.70000000e+02  3.00000000e+01  0.00000000e+00
 4.80000000e+02  3.00000000e+01  0.00000000e+00
 4.90000000e+02  3.00000000e+01  0.00000000e+00
[...]
CELL_DATA      13005
SCALARS log(K) double
LOOKUP_TABLE default
0.252865
0.874545
1.41352
2.01656
1.38087
0.834814
0.504392
1.11733
1.12912
0.83768
0.408692
-0.452745
-0.298515
-1.08542
-0.529147
1.00475
0.313976
0.520906
0.414028
0.689274
1.10634
0.908232
1.10831
1.03807
0.720517
0.767613
2.46799
2.64659
2.45612
1.56543
1.29096
1.34489
0.805904
0.21156
0.698153
0.467358
0.0890613
1.19488
0.197482
0.107788
0.397713
1.41168
2.1824
1.9478
0.947092
1.24666
1.74777
1.97455
2.35114
2.00398
1.92871
0.893803
0.993301
2.19504
1.18828
1.23675
0.797416
0.251296
0.750828
1.48169
0.851273
0.106646
0.589523
-0.0878214
0.164984
0.128645
0.712854
0.518752
0.668187
0.0828358
0.774709
1.39059
0.536909
0.72323
1.20685
1.22375
1.34704
1.64038
2.00716
1.70872
1.61805
1.37788
0.284619
0.631232
-0.317937
0.201176
0.33309
0.912895
0.59521
-0.309618
0.541162
0.140284
0.96205
1.07145
1.7631
0.609893
0.979756
2.13764
1.93094
2.58528
1.64504
1.08202
0.772152
0.943365
1.09775
0.508335
-0.135748
-0.245958
-0.272803
0.248352
1.47426
1.55242
0.696283
0.965282
1.46201
0.389467
0.106504
-0.227612
-0.225011
0.462267
1.07048
1.52268
1.21573
0.886059
2.16871
2.33317
2.73215
1.38673
1.27834
1.74512
1.74141
0.941369
0.807778
0.839066
1.03504
0.738349
0.803919
0.725898
0.401963
0.533331
0.424781
0.233988
0.15079
0.824589
0.951663
0.979128
0.572751
0.85955
2.26978
2.47954
2.05818
1.31042
0.500261
-0.230044
-0.410159
-0.569822
-1.34262
-1.18099
-1.12834
-0.526183
0.0411535
0.377288
0.701361
2.16258
1.79068
1.48457
1.34106
0.747688
0.641736
0.480477
0.607055
0.653569
0.729088
0.838509
1.30995
1.89403
2.52442
1.97524
1.33991
1.01101
0.703149
0.818378
1.41556
1.94404
1.72818
1.78604
1.21252
1.5484
1.10147
-0.0223658
0.272813
0.858954
-0.645741
-0.0480403
-0.224672
0.571965
0.259142
0.607618
0.752741
1.18085
1.83571
1.78284
2.14107
1.38261
-0.700807
-0.444011
-1.33611
-1.10783
-1.48209
-0.80503
-1.16583
-0.494271
-0.339361
0.374613
1.48084
1.14129
1.1057
0.362621
0.851396
-0.288822
0.363495
0.129172
-0.228701
0.200312
0.123033
1.41756
1.50746
2.00747
1.42226
0.468156
0.583129
-0.14952
-0.2936
0.44658
1.94848
1.87085
1.7285
1.05215
1.08237
1.01656
0.975231
0.91232
0.258136
0.214852
-0.146154
0.321534
-0.442165
-0.14739
0.190125
0.367492
1.56876
1.72093
0.717858
1.96363
2.11995
-0.944878
-1.12153
-1.17955
-0.856781
-0.542344
-0.416768
-0.253721
-0.874981
-0.987413
-0.314682
0.743097
0.0316037
0.0825987
0.0769454
0.121717
-0.577128
0.120657
-0.0163202
-0.201146
0.43286
0.432809
0.560938
1.42084
0.843033
1.02652
0.441949
0.736982
0.596404
-0.0413984
0.03396
0.777507
1.77407
1.74334
0.722501
0.675507
0.985656
0.612712
0.232969
-0.0786701
1.32564
-0.864752
0.140795
-0.253026
-0.539508
-0.222164
0.620197
1.07587
1.04697
1.04445
1.7312
1.89
-1.05073
-1.13032
-0.640164
-0.173265
0.223419
-0.40482
-0.460021
-0.543344
-1.09294
-0.402104
-0.147812
0.765672
-0.055278
0.695851
0.480239
0.576292
-0.362923
0.000894397
0.451274
-0.0755159
0.417525
0.267574
1.1285
0.56598
0.220822
-0.126345
0.577051
0.787695
0.486159
-0.26435
0.557009
0.8761
0.634938
-0.00612899
0.542371
1.04772
0.729197
0.553339
0.36899
0.0568707
-0.000970148
-0.148701
-0.531575
-0.718885
0.713337
0.0431252
0.602067
0.162696
0.861573
1.72402
1.28199
-1.19328
-0.133928
0.0380111
0.353378
-0.531305
-0.716295
-0.19039
-1.1068
-1.0199
-0.438386
-0.107936
0.650579
0.269306
0.656182
0.382556
0.106256
0.574022
0.391904
0.399057
0.0650901
-0.532787
1.09959
1.12887
0.833498
-0.429022
0.419945
0.709825
0.688378
0.262883
0.017547
-0.000899355
-0.126048
0.205222
-0.231647
-0.232257
0.450977
0.329051
0.533004
0.0582836
0.670867
0.236329
0.281479
0.64334
-0.67132
0.138555
-0.115243
-0.473821
0.567454
0.402865
1.13347
0.845967
-1.12009
-0.689329
-0.512522
-0.895709
-0.904557
-1.45404
-0.438369
-0.0533104
0.433699
0.728735
0.421586
-0.0860865
0.684748
0.331503
0.41634
0.379373
0.583002
0.250162
-0.150922
-0.472757
-0.247195
0.668471
1.25696
0.378746
0.105276
0.320935
-0.311215
0.0945758
-0.132477
-0.190705
0.162486
0.200961
-0.552678
-0.19492
-0.312749
0.661539
-0.167435
0.677882
-0.34043
0.0230151
0.187116
0.193835
0.381137
0.0202287
-0.390892
-0.131563
0.56203
0.512038
0.38606
-0.249596
-0.985669
0.738895
-0.271475
-0.866348
-0.569948
-0.186102
-0.608027
-0.308527
0.132159
-0.746484
0.34722
0.123952
-0.159102
0.0329409
0.198211
0.300455
-0.0376771
-0.0226705
-0.0617805
-0.736951
0.334899
-0.0108169
0.861661
0.476968
0.190926
-0.732919
-0.395129
-0.27908
-1.51785
-1.39699
-0.647003
-1.27531
-0.838601
-0.913767
-0.0537238
-0.247027
-0.412008
-1.36355
0.247563
-0.0386398
-0.408025
-1.16644
-0.448711
-0.61989
0.142151
0.518741
0.736313
0.846982
0.663269
-0.169715
-0.426708
-1.58869
0.213781
-0.123444
-1.21996
-0.561067
0.384608
0.490316
-0.174954
-0.315229
-0.460618
0.298849
0.734382
0.263412
0.18568
0.295129
-0.458297
-0.784972
-0.258867
0.053018
-0.360749
-0.0149413
0.171794
0.230759
0.0221761
-0.0664566
-0.104522
-1.16467
-1.20721
-1.79506
-1.80201
-1.52811
-1.31652
-0.655905
-1.03579
-1.48402
-0.576699
-0.371268
-0.944093
-1.73812
-1.2798
-0.255005
-1.16379
-1.17001
-0.603226
-0.153147
0.155704
1.66355
1.61139
1.04535
-0.0420332
-0.677965
-1.65567
0.285361
-0.0154821
-0.917314
-0.737714
0.12845
0.700795
0.752708
0.12673
0.621029
0.918407
0.56352
-0.00536705
-0.215011
-0.0312636
-0.691718
-0.586165
-0.110505
0.507087
0.229352
0.272284
0.582982
0.466462
-0.0906337
-0.847626
-1.52668
-1.29149
-1.01343
-1.08662
-0.925506
-0.996685
-0.994733
-0.57848
-1.00765
-0.826173
-0.972351
-0.453271
-1.60619
-2.33956
-1.61509
-0.627776
-1.01697
-1.47052
-0.824482
-0.0311022
-0.344542
1.11742
1.56623
1.289
0.861225
-0.247717
-1.16489
-0.548174
-0.713359
-0.534469
-0.699574
-0.138621
0.938988
1.18493
0.922746
0.705361
0.561848
0.325042
-0.508126
0.489357
0.333009
-0.261845
-0.794616
-1.51681
-0.626421
-0.446514
0.443855
0.253157
-0.111268
-0.242194
-0.163521
-0.64971
-0.160407
-0.416517
-0.794509
-0.526095
-0.559236
-0.331284
-0.490454
-0.421
-0.469844
-0.635235
-0.669243
-1.46669
-2.70656
-1.86729
-0.939261
-0.431227
-0.329126
-0.913355
0.316242
0.480296
0.984767
0.977971
1.4378
1.14029
-0.139729
-0.493266
-0.770613
-1.71309
-1.20362
-0.0802443
0.459606
0.896044
1.13474
0.481802
0.343858
0.489586
-0.705733
-1.18652
-1.03568
-0.244682
-0.279701
-0.890969
-1.57213
-0.801009
-0.435452
-0.544305
-0.0375354
-0.583514
-0.475655
-0.88446
-1.15718
-0.397988
-1.18635
-0.822992
-0.563048
-0.452352
0.45683
0.289634
0.302805
0.021633
0.145357
0.285111
-1.43234
-2.25661
-1.35943
-0.242636
-0.702464
-0.395529
-0.350505
0.608478
0.492881
0.33014
1.0452
2.04584
0.693221
-0.219407
-0.299049
-0.0136924
-0.952299
-0.151402
-0.370644
0.606265
0.794441
0.179176
-0.299514
-0.588524
-0.742797
-1.15393
-1.37618
-1.23517
-0.931808
-0.764486
-1.21246
-0.495533
-0.390534
-0.492919
-1.0137
-1.18702
-0.938048
-0.730048
-0.281693
-0.398754
-0.438433
-0.382455
-0.086771
-0.0794893
0.327313
0.0441093
-0.00743333
1.05994
0.908311
-0.0224327
-0.281253
-1.68123
-2.32016
-0.870195
-0.105882
0.287552
0.5886
0.919222
1.65729
1.46462
1.48165
1.67086
1.2576
0.960461
0.0443918
-0.252805
-0.0050272
0.494838
-0.433041
-0.343255
0.546937
0.292031
-0.254452
-0.359435
-0.940932
-1.54982
-2.0188
-2.50127
-2.25427
-2.59194
-2.43311
-1.50742
-0.71595
-1.22818
-0.700676
-0.965455
-0.625672
-0.47065
-1.27445
-1.0359
-1.35897
-1.03643
-0.445909
-0.986111
-1.18703
0.305688
0.145215
0.302812
0.431951
0.946494
0.120028
-0.347266
-1.7275
-1.35543
-0.576674
-0.109848
0.667313
1.56134
1.35474
2.07605
1.42702
0.945226
1.94874
2.27761
1.96089
1.51986
0.852771
0.0357638
0.286778
-0.195423
-0.742822
-0.488623
-0.116397
0.0665548
0.0198735
0.320843
-0.683335
-1.79034
-1.78421
-2.40547
-2.79321
-1.85173
-1.65926
-1.34969
-1.57722
-1.01124
-1.11852
-1.05302
-0.546866
-0.982191
-1.84931
-1.49167
-2.32159
-1.00769
-1.04351
0.0457749
0.115407
0.0798292
-0.538252
0.0792749
0.438511
0.327065
-1.66075
-0.945595
-0.899743
-0.983862
-0.21111
0.445033
0.736618
0.985591
1.90375
1.14965
1.16257
1.51077
2.04346
1.44466
1.56344
1.25126
0.472785
0.0294082
-0.445598
-0.179962
-0.321611
0.206361
-0.420063
-0.486065
-1.02141
-0.447464
-1.39289
-2.4011
-2.04478
-2.59804
-2.19278
-1.93057
-1.62849
-1.54133
-1.67388
-1.20157
-0.121541
-0.29442
-0.900297
-0.607983
-1.49187
-2.16751
-1.8924
-1.84205
-0.688646
-0.0181498
-0.198717
-0.507
0.708557
0.125089
-1.21987
-1.41632
-0.751421
-1.49095
-1.15242
-0.682456
0.299265
0.133633
0.958081
1.82695
1.56385
1.17874
1.21123
1.85658
1.29618
0.86927
-0.335053
-0.473954
0.199925
0.200403
0.0603398
0.497067
0.850415
-0.0318101
0.224951
-0.845313
-0.389269
-1.24
-1.64021
-2.13732
-2.43472
-2.47694
-2.85055
-2.26848
-1.30734
-0.968015
-0.817233
0.357516
-0.104189
-0.389913
-0.971091
-1.95675
-1.94223
-2.0536
-1.85332
-1.08979
-0.940042
-0.455355
-0.384465
-0.0239923
-1.09503
-1.23218
-0.966479
-1.36745
-1.79254
-0.96972
-0.254632
0.255382
0.495251
0.32471
1.01793
0.909418
0.847315
0.390056
1.6333
2.19015
0.888691
0.734026
-0.137759
0.184947
-0.159031
-0.0698856
0.353625
0.617247
0.457824
0.63852
-0.167765
-0.345138
-0.343969
-1.85288
-2.20107
-2.09114
-2.31016
-2.14365
-1.76658
-0.979127
-0.72401
0.0995449
0.299759
-0.706036
-1.26457
-1.48221
-2.07239
-1.97765
-2.05917
-2.23912
-0.966503
-0.374818
-1.11508
-1.50059
-0.537806
-1.05579
-1.26781
-0.793863
-1.24525
-1.8066
-1.92706
-0.630436
0.0190063
0.657238
0.977629
0.179658
0.878837
0.942345
0.869186
1.6929
2.01648
0.511417
0.464125
-0.701291
0.574113
0.663011
0.192303
-0.102645
0.570946
0.880879
0.519426
-0.512611
-1.14985
-0.796787
-0.903986
-2.03897
-1.90816
-2.44024
-1.26326
-1.32656
-0.989671
-0.963899
-0.587675
0.460768
0.74514
-1.27677
-1.96985
-1.73255
-2.21336
-2.82481
-3.00902
-1.5295
-1.14765
-1.67251
-1.31488
-0.730521
-1.08744
-1.20775
-0.868996
-0.925101
-1.9135
-1.68948
-1.08408
-0.781723
0.507969
1.58725
1.22844
1.32527
0.190367
0.57081
1.17808
1.55258
0.935747
1.92747
0.335342
-0.19585
0.635045
0.252723
0.357987
1.20259
1.26535
0.631134
-0.106625
-1.38941
-1.24933
-1.6127
-1.61565
-2.14395
-1.96579
-1.58287
-1.93501
-1.5201
-1.08677
-0.116854
0.495562
0.816419
-0.457587
-1.60785
-1.57116
-1.88275
-2.00195
-2.70207
-1.69845
-1.49471
-1.61789
-0.899663
-0.963332
-1.06841
-0.937698
-0.195263
-1.62243
-1.83694
-2.13484
-1.61763
0.231602
1.22767
1.12846
1.01283
0.50324
0.580389
0.307718
0.858794
1.91264
1.28315
1.59303
0.557567
-0.259882
-0.0262894
0.949091
0.848694
0.844177
1.99892
0.656081
0.150189
-0.560246
-0.65958
-0.813517
-0.828745
-1.51938
-1.97217
-2.11301
-1.45686
-1.97719
-0.853108
-0.293849
-0.323899
0.674813
-0.61952
-0.960858
-0.794826
-0.619641
-0.845519
-1.66511
-1.71272
-2.26121
-1.7845
-2.0178
-1.54329
-1.63318
-1.71437
-1.05801
-1.38736
-2.86585
-2.19538
-1.83656
0.734331
0.0154848
1.25459
0.430314
0.634568
0.276361
0.140246
1.59687
1.04786
0.724645
1.32035
0.753232
0.297382
0.29497
1.3056
1.47659
1.3896
1.48898
1.80978
0.973759
0.37644
-0.317267
-0.0198982
-0.701243
-1.25723
-1.89429
-1.84432
-1.24179
-1.16491
-0.873129
0.340843
0.407599
0.563604
-0.272875
-0.476103
-0.628435
-1.03184
-0.934832
-0.925351
-2.16603
-2.66604
-2.48484
-2.59275
-2.46403
-2.06378
-1.93763
-0.838111
-0.471279
-0.915136
-0.744275
-0.520369
-0.747595
-0.193668
0.915347
0.145839
0.804631
0.100935
-0.236542
0.0853306
1.13546
1.30013
1.29497
1.0639
0.897839
0.753179
0.234021
0.756817
1.5019
1.63764
1.99602
1.45537
0.570202
0.999949
0.564192
0.278179
-0.588211
-1.43425
-2.01565
-0.532178
-1.04193
0.0748892
0.663475
0.716205
-0.0992705
-0.317923
-0.684265
-1.44088
-1.18566
-1.38879
-1.52213
-1.39743
-2.57572
-2.12769
-2.64799
-3.00582
-1.70404
-2.53559
-1.05946
-0.82899
-1.10323
-0.206997
-0.40861
-0.194831
0.171216
1.01647
0.376922
-0.389859
-0.755051
-0.387944
-0.167539
0.881618
0.933987
1.79649
0.540704
0.900289
1.10088
1.45809
1.41899
1.50601
-0.010548
1.0601
0.931928
0.662552
1.25436
1.39932
0.465758
0.486649
-0.714079
-0.913168
0.388244
0.0830525
0.138199
0.140234
0.11182
-0.415996
-0.989897
-1.16245
-1.87939
-1.79873
-1.31534
-1.72235
-2.15807
-1.82827
-1.76559
-2.16019
-2.16157
-3.28511
-2.63791
-1.51766
-0.898194
-0.12325
0.360751
0.717322
1.42497
0.267332
0.0315761
-0.026611
-0.4977
-0.775883
-0.494653
-0.303403
0.654994
1.68017
1.46669
1.17825
1.97372
1.73004
2.1944
1.25608
0.552195
0.272653
-0.0744726
0.208815
0.327308
1.2655
1.56937
0.36991
0.805631
0.0965919
0.960666
0.801686
1.64342
0.869633
0.503233
0.0118477
-1.01528
-1.47797
-1.30751
-1.527
-1.71278
-1.87092
-1.67313
-1.95279
-2.36648
-2.52171
-2.24783
-3.28082
-2.81542
-2.14126
-1.10514
-0.584901
-0.920069
-0.0520254
-0.540365
0.0968221
-0.43594
-0.301375
-0.183978
-0.841734
0.182366
-0.570146
0.0704515
0.818131
1.47182
1.895
1.10508
1.49397
2.4076
2.02145
0.893638
0.428714
-0.403007
-0.631095
-0.654982
-0.258028
0.0308525
0.468445
0.0461331
-0.127722
-0.421945
0.83612
0.610529
0.605419
0.334186
-0.650957
-0.464446
-0.851441
-0.598761
-0.739964
-0.716727
-1.17558
-2.35536
-2.62735
-3.23552
-2.97207
-2.79976
-2.97811
-2.32468
-1.21657
-1.26566
-1.52149
-1.56484
-1.8651
-1.95241
-1.15153
-1.79815
-0.722128
-0.705492
-0.545893
-0.40331
1.13046
1.04435
1.03098
1.28052
1.61709
0.797417
1.47689
1.02405
1.78652
1.54259
0.999252
0.78597
-0.00239267
0.00153363
-0.299002
-0.192859
0.0183569
-0.382822
-0.960268
-1.01712
-0.585039
0.267215
0.494332
-0.5502
-0.267292
-0.598013
-1.3139
-0.211472
-0.969072
-0.601941
-1.16576
-2.0598
-2.96935
-2.88253
-2.636
-3.29487
-3.24531
-2.30384
-1.56813
-1.10168
-1.50966
-1.76263
-2.00395
-2.01109
-1.70009
-1.20546
-1.2933
-1.4085
-1.10216
-0.0977357
0.0760555
0.636746
0.958312
0.386925
1.22204
0.636405
1.27282
1.51195
1.07462
0.383931
0.391812
0.907431
0.807141
0.448266
0.544857
0.205724
0.204896
0.151623
-0.551501
-0.259589
-0.473132
-0.499651
-0.736995
0.238615
-0.0792565
-0.503007
-0.703692
-0.88697
-0.563756
-0.468396
-0.970504
-0.775876
-1.45559
-2.3059
-2.58783
-2.72379
-2.76905
-2.32483
-1.6385
-1.18824
-2.18535
-1.99914
-2.00605
-2.13731
-1.895
-2.28115
-1.58205
-1.82689
-2.64661
-1.47827
-0.376214
0.0412719
0.25147
0.616251
0.198562
1.7166
1.96783
1.02724
0.287494
-0.389176
0.268609
0.915043
1.18384
0.459537
1.04754
0.601217
0.681022
0.294457
0.469198
0.666796
0.179308
0.882628
0.462305
0.292117
0.401458
0.042887
-0.718192
-0.357175
-0.624904
-0.632115
-0.850079
-0.197173
-0.468256
-1.52026
-1.38686
-2.77858
-2.69108
-2.4027
-1.81164
-1.81186
-2.32122
-2.33563
-1.50986
-1.21841
-1.65302
-1.76166
-2.52932
-1.6432
-1.8773
-2.37831
-2.44436
-1.33604
-0.217457
-0.396089
0.149638
0.9648
0.641177
0.607044
1.19733
-0.727867
-0.511408
0.457581
1.19296
0.479723
1.01272
1.20225
0.874415
0.49228
0.659545
0.650475
0.270016
0.761076
1.41902
0.0262188
0.0601086
1.13946
0.315855
-0.536881
-0.489698
-1.18285
-0.752838
-0.496907
-0.747074
-1.09364
-0.498588
-1.55125
-1.91858
-2.68591
-1.51854
-1.79173
-1.58298
-2.27042
-1.3479
-0.383314
-0.278826
-0.442416
-1.72208
-1.47562
-2.01904
-1.89199
-2.01075
-1.13379
-0.786818
-0.161454
-0.616256
-0.264127
0.747148
0.718868
1.13692
1.05778
-0.255367
0.360124
0.624556
1.0332
0.546521
0.168781
0.593538
1.79654
0.988232
1.22355
1.28686
1.34086
0.83141
0.966044
-0.0632667
0.0567144
1.07152
1.4211
0.304307
-0.722726
-0.917098
-0.798829
-0.120254
-0.844219
-0.0166815
-0.600537
-1.80101
-1.20552
-1.60066
-1.52428
-1.5855
-1.33097
-1.16045
-0.773063
-0.227855
-0.272377
-0.0741469
-1.02714
-0.769841
-1.18166
-0.938154
-1.90352
-0.689887
-0.752453
-0.539325
-1.04049
-0.767429
-0.171257
0.182683
0.508433
1.35745
0.444558
0.396436
0.680685
0.785668
1.62186
1.90023
1.36235
1.20797
0.640911
1.6102
1.35104
1.95407
1.5886
1.37424
1.26807
0.926552
0.906258
1.70754
0.3235
-0.380289
-0.0441653
-0.770773
-0.606985
-1.02292
-0.0795111
-0.380063
-1.3601
-2.29083
-2.56613
-1.13991
-1.15377
-1.12022
-1.69817
-0.888962
-1.27593
-1.70093
-1.26968
-0.3353
-0.459973
-1.98447
-1.38269
-1.64341
-0.761662
-0.840146
-0.321596
-1.16731
-0.354504
-0.61423
-0.0799061
0.575191
1.71106
0.117893
0.584484
1.23379
1.23684
1.32031
2.72866
1.47913
0.791578
2.09954
1.68876
1.87338
1.58902
2.00657
1.92753
1.53249
0.836678
1.57543
2.03809
0.83252
-0.282722
0.36804
0.0048193
-1.32285
-1.28708
-1.11469
-0.419654
-1.27883
-1.93496
-2.58318
-1.03493
-0.964353
-1.28485
-1.72783
-1.44711
-1.49657
-1.50438
-0.938608
-0.16625
-1.24895
-1.29206
-1.13071
-1.10389
-1.17195
-0.679135
-0.542089
-0.79212
-0.150933
0.59418
0.193122
1.02347
2.11292
1.6172
1.01553
1.24795
1.49734
2.32737
2.85793
1.77659
1.08086
2.03581
1.46504
1.72083
0.630996
0.918105
1.18037
0.270813
0.552352
0.398307
1.34161
0.866038
0.87364
0.534707
0.820069
0.324302
0.749317
0.433364
-0.174533
-0.647081
-1.15766
-0.81824
-0.825746
-0.151556
-0.90501
-1.54811
-1.36586
-1.26134
-0.911136
-0.881226
-0.633773
-0.502524
0.347657
-0.250472
-0.308893
0.18763
0.894516
-0.179152
-0.489485
-0.499089
0.16099
1.0699
1.42181
1.82017
1.32582
1.36273
1.65473
1.979
2.16322
2.8947
2.19986
0.31138
1.36293
1.34981
1.00645
0.568466
1.06515
0.37043
0.836596
-0.0197065
0.894963
1.16595
0.936306
0.806268
1.59271
0.663292
1.37273
0.821083
-0.145941
-0.736191
-1.45333
-1.80978
-1.0399
-1.19122
-1.05119
-1.22582
-1.98123
-1.00707
-1.01349
-1.14692
-0.847902
0.292996
0.335578
0.872224
0.198755
0.790723
-0.0855451
0.390827
-0.108804
0.209234
0.489575
0.364251
1.25454
1.06533
1.5557
0.987075
2.4156
1.52692
2.17768
2.37953
1.60944
1.6698
0.832991
0.359959
1.12061
1.03816
0.951053
0.741635
1.23666
0.306357
0.351303
0.771694
0.187603
0.500685
1.0595
1.85153
2.22068
1.56361
0.423216
-0.000536614
-0.330042
-0.547159
-1.52611
-1.4369
-0.996078
-0.484717
-0.415183
-1.4364
-1.34636
-0.282518
-0.230743
-0.34068
-0.252108
0.0320145
1.2886
1.14506
0.151234
0.827086
0.776993
0.688043
0.881167
1.04506
1.07591
1.33899
0.974662
1.18133
1.67169
2.09162
2.03627
1.55006
1.21749
0.84646
1.46597
0.455054
0.487315
0.23565
1.25001
0.724927
0.82917
0.726881
1.01455
1.10365
0.566325
0.269345
0.83685
1.051
1.39563
1.54546
1.42751
0.00801446
-0.802964
-0.871046
-1.20014
-1.08219
-0.983461
-1.74258
-1.22581
-1.28406
-0.581075
-0.391317
0.29272
0.348413
-0.256472
0.485555
0.977028
1.64002
1.48236
0.906622
1.23774
0.887594
0.934463
0.671254
0.808197
0.571834
0.432019
0.926369
0.610627
1.52073
1.80182
1.17519
1.24005
0.747333
0.440705
1.12538
0.696679
0.178756
-0.246559
0.645105
0.84796
0.837944
0.451699
1.36794
1.70838
1.43023
0.835553
1.22609
1.24533
1.75006
0.760944
0.36078
0.140697
-0.704102
-0.687431
-1.36989
-0.890564
-0.459494
-0.696409
-0.729578
-0.73005
-0.0539701
0.911288
0.983059
0.627452
0.350771
0.536206
1.34913
2.12998
1.2276
0.869604
0.809937
0.646735
0.907295
0.573523
-0.514484
0.223122
1.21585
0.795963
0.916863
2.57612
2.07997
1.38635
1.34697
0.974564
0.640024
0.437566
0.720399
0.434376
-0.111527
-0.0850858
0.388438
0.488706
0.081431
0.102031
1.04697
1.31686
1.83574
1.90182
1.42142
0.956002
1.35144
0.153807
0.00541844
-0.00801049
-0.435705
-1.24176
-0.324448
-0.265679
-0.094997
-0.44286
-0.168961
0.156597
1.13993
1.32092
0.764755
0.633205
0.702924
1.34445
2.28045
1.58191
1.61927
0.353829
0.348572
0.247456
0.217564
0.300968
-0.0221323
0.162672
-0.156186
0.787838
2.10289
1.5891
1.86521
0.946833
1.28739
1.66757
1.55987
1.14691
1.18095
-0.0526533
-0.831172
-1.31713
-0.629882
-0.819416
0.601848
1.38713
1.54833
1.89208
1.33389
1.10114
0.86218
1.32718
1.39192
1.27066
1.27132
0.321994
-0.180114
-0.359644
0.261826
-0.082477
0.0732565
-0.144558
0.41828
0.236005
1.21956
2.26439
0.831675
0.917193
1.34168
1.48895
1.4766
1.30628
0.205527
0.311692
0.385009
0.190443
0.644987
1.23073
0.197534
-1.09239
-0.145136
2.6924
3.15086
1.97828
2.55748
2.06999
1.77442
1.01154
0.512344
0.240262
-0.392858
-0.0782667
-0.313452
-0.431526
-0.166416
0.580315
1.33614
1.76061
1.13056
0.800748
0.286304
1.05596
1.53428
1.34141
1.64909
0.964909
0.524475
-0.659581
-0.09466
-0.0759394
-0.755367
-0.649436
0.225525
0.306321
0.6242
1.86716
1.21615
1.07094
1.60643
1.55617
1.85963
0.981774
0.0363938
0.899513
-0.123486
0.00269537
-0.0507057
0.405487
0.557399
0.387874
-0.61437
-0.691057
3.02831
3.22345
2.64956
3.07367
2.03881
2.03483
2.14859
0.547337
0.344639
0.209831
-0.00749351