# vtk DataFile Version 3.0
vtk output
ASCII
DATASET UNSTRUCTURED_GRID
POINTS      16224 float
 0.00000000e+00  0.00000000e+00  0.00000000e+00
 1.00000000e+01  0.00000000e+00  0.00000000e+00
 2.00000000e+01  0.00000000e+00  0.00000000e+00
 3.00000000e+01  0.00000000e+00  0.00000000e+00
 4.00000000e+01  0.00000000e+00  0.00000000e+00
 5.00000000e+01  0.00000000e+00  0.00000000e+00
 6.00000000e+01  0.00000000e+00  0.00000000e+00
 7.00000000e+01  0.00000000e+00  0.00000000e+00
 8.00000000e+01  0.00000000e+00  0.00000000e+00
 9.00000000e+01  0.00000000e+00  0.00000000e+00
 1.00000000e+02  0.00000000e+00  0.00000000e+00
 1.10000000e+02  0.00000000e+00  0.00000000e+00
 1.20000000e+02  0.00000000e+00  0.00000000e+00
 1.30000000e+02  0.00000000e+00  0.00000000e+00
 1.40000000e+02  0.00000000e+00  0.00000000e+00
 1.50000000e+02  0.00000000e+00  0.00000000e+00
 1.60000000e+02  0.00000000e+00  0.00000000e+00
 1.70000000e+02  0.00000000e+00  0.00000000e+00
 1.80000000e+02  0.00000000e+00  0.00000000e+00
 1.90000000e+02  0.00000000e+00  0.00000000e+00
 2.00000000e+02  0.00000000e+00  0.00000000e+00
 2.10000000e+02  0.00000000e+00  0.00000000e+00
 2.20000000e+02  0.00000000e+00  0.00000000e+00
 2.30000000e+02  0.00000000e+00  0.00000000e+00
 2.40000000e+02  0.00000000e+00  0.00000000e+00
 2.50000000e+02  0.00000000e+00  0.00000000e+00
 2.60000000e+02  0.00000000e+00  0.00000000e+00
 2.70000000e+02  0.00000000e+00  0.00000000e+00
 2.80000000e+02  0.00000000e+00  0.00000000e+00
 2.90000000e+02  0.00000000e+00  0.00000000e+00
 3.00000000e+02  0.00000000e+00  0.00000000e+00
 3.10000000e+02  0.00000000e+00  0.00000000e+00
 3.20000000e+02  0.00000000e+00  0.00000000e+00
 3.30000000e+02  0.00000000e+00  0.00000000e+00
 3.40000000e+02  0.00000000e+00  0.00000000e+00
 3.50000000e+02  0.00000000e+00  0.00000000e+00
 3.60000000e+02  0.00000000e+00  0.00000000e+00
 3.70000000e+02  0.00000000e+00  0.00000000e+00
 3.80000000e+02  0.00000000e+00  0.00000000e+00
 3.90000000e+02  0.00000000e+00  0.00000000e+00
 4.00000000e+02  0.00000000e+00  0.00000000e+00
 4.10000000e+02  0.00000000e+00  0.00000000e+00
 4.20000000e+02  0.00000000e+00  0.00000000e+00
 4.30000000e+02  0.00000000e+00  0.00000000e+00
 4.40000000e+02  0.00000000e+00  0.00000000e+00
 4.50000000e+02  0.00000000e+00  0.00000000e+00
 4.60000000e+02  0.00000000e+00  0.00000000e+00
 4.70000000e+02  0.00000000e+00  0.00000000e+00
 4.80000000e+02  0.00000000e+00  0.00000000e+00
 4.90000000e+02  0.00000000e+00  0.00000000e+00
 5.00000000e+02  0.00000000e+00  0.00000000e+00
 5.10000000e+02  0.00000000e+00  0.00000000e+00
 0.00000000e+00  1.00000000e+01  0.00000000e+00
 1.00000000e+01  1.00000000e+01  0.00000000e+00
 2.00000000e+01  1.00000000e+01  0.00000000e+00
 3.00000000e+01  1.00000000e+01  0.00000000e+00
 4.00000000e+01  1.00000000e+01  0.00000000e+00
 5.00000000e+01  1.00000000e+01  0.00000000e+00
 6.00000000e+01  1.00000000e+01  0.00000000e+00
 7.00000000e+01  1.00000000e+01  0.00000000e+00
 8.00000000e+01  1.00000000e+01  0.00000000e+00
 9.00000000e+01  1.00000000e+01  0.00000000e+00
 1.00000000e+02  1.00000000e+01  0.00000000e+00
 1.10000000e+02  1.00000000e+01  0.00000000e+00
 1.20000000e+02  1.00000000e+01  0.00000000e+00
 1.30000000e+02  1.00000000e+01  0.00000000e+00
 1.40000000e+02  1.00000000e+01  0.00000000e+00
 1.50000000e+02  1.00000000e+01  0.00000000e+00
 1.60000000e+02  1.00000000e+01  0.00000000e+00
 1.70000000e+02  1.00000000e+01  0.00000000e+00
 1.80000000e+02  1.00000000e+01  0.00000000e+00
 1.90000000e+02  1.00000000e+01  0.00000000e+00
 2.00000000e+02  1.00000000e+01  0.00000000e+00
 2.10000000e+02  1.00000000e+01  0.00000000e+00
 2.20000000e+02  1.00000000e+01  0.00000000e+00
 2.30000000e+02  1.00000000e+01  0.00000000e+00
 2.40000000e+02  1.00000000e+01  0.00000000e+00
 2.50000000e+02  1.00000000e+01  0.00000000e+00
 2.60000000e+02  1.00000000e+01  0.00000000e+00
 2.70000000e+02  1.00000000e+01  0.00000000e+00
 2.80000000e+02  1.00000000e+01  0.00000000e+00
 2.90000000e+02  1.00000000e+01  0.00000000e+00
 3.00000000e+02  1.00000000e+01  0.00000000e+00
 3.10000000e+02  1.00000000e+01  0.00000000e+00
 3.20000000e+02  1.00000000e+01  0.00000000e+00
 3.30000000e+02  1.00000000e+01  0.00000000e+00
 3.40000000e+02  1.00000000e+01  0.00000000e+00
 3.50000000e+02  1.00000000e+01  0.00000000e+00
 3.60000000e+02  1.00000000e+01  0.00000000e+00
 3.70000000e+02  1.00000000e+01  0.00000000e+00
 3.80000000e+02  1.00000000e+01  0.00000000e+00
 3.90000000e+02  1.00000000e+01  0.00000000e+00
 4.00000000e+02  1.00000000e+01  0.00000000e+00
 4.10000000e+02  1.00000000e+01  0.00000000e+00
 4.20000000e+02  1.00000000e+01  0.00000000e+00
 4.30000000e+02  1.00000000e+01  0.00000000e+00
 4.40000000e+02  1.00000000e+01  0.00000000e+00
 4.50000000e+02  1.00000000e+01  0.00000000e+00
 4.60000000e+02  1.00000000e+01  0.00000000e+00
 4.70000000e+02  1.00000000e+01  0.00000000e+00
 4.80000000e+02  1.00000000e+01  0.00000000e+00
 4.90000000e+02  1.00000000e+01  0.00000000e+00
 5.00000000e+02  1.00000000e+01  0.00000000e+00
 5.10000000e+02  1.00000000e+01  0.00000000e+00
 0.00000000e+00  2.00000000e+01  0.00000000e+00
 1.00000000e+01  2.00000000e+01  0.00000000e+00
 2.00000000e+01  2.00000000e+01  0.00000000e+00
 3.00000000e+01  2.00000000e+01  0.00000000e+00
 4.00000000e+01  2.00000000e+01  0.00000000e+00
 5.00000000e+01  2.00000000e+01  0.00000000e+00
 6.00000000e+01  2.00000000e+01  0.00000000e+00
 7.00000000e+01  2.00000000e+01  0.00000000e+00
 8.00000000e+01  2.00000000e+01  0.00000000e+00
 9.00000000e+01  2.00000000e+01  0.00000000e+00
 1.00000000e+02  2.00000000e+01  0.00000000e+00
 1.10000000e+02  2.00000000e+01  0.00000000e+00
 1.20000000e+02  2.00000000e+01  0.00000000e+00
 1.30000000e+02  2.00000000e+01  0.00000000e+00
 1.40000000e+02  2.00000000e+01  0.00000000e+00
 1.50000000e+02  2.00000000e+01  0.00000000e+00
 1.60000000e+02  2.00000000e+01  0.00000000e+00
 1.70000000e+02  2.00000000e+01  0.00000000e+00
 1.80000000e+02  2.00000000e+01  0.00000000e+00
 1.90000000e+02  2.00000000e+01  0.00000000e+00
 2.00000000e+02  2.00000000e+01  0.00000000e+00
 2.10000000e+02  2.00000000e+01  0.00000000e+00
 2.20000000e+02  2.00000000e+01  0.00000000e+00
 2.30000000e+02  2.00000000e+01  0.00000000e+00
 2.40000000e+02  2.00000000e+01  0.00000000e+00
 2.50000000e+02  2.00000000e+01  0.00000000e+00
 2.60000000e+02  2.00000000e+01  0.00000000e+00
 2.70000000e+02  2.00000000e+01  0.00000000e+00
 2.80000000e+02  2.00000000e+01  0.00000000e+00
 2.90000000e+02  2.00000000e+01  0.00000000e+00
 3.00000000e+02  2.00000000e+01  0.00000000e+00
 3.10000000e+02  2.00000000e+01  0.00000000e+00
 3.20000000e+02  2.00000000e+01  0.00000000e+00
 3.30000000e+02  2.00000000e+01  0.00000000e+00
 3.40000000e+02  2.00000000e+01  0.00000000e+00
 3.50000000e+02  2.00000000e+01  0.00000000e+00
 3.60000000e+02  2.00000000e+01  0.00000000e+00
 3.70000000e+02  2.00000000e+01  0.00000000e+00
 3.80000000e+02  2.00000000e+01  0.00000000e+00
 3.90000000e+02  2.00000000e+01  0.00000000e+00
 4.00000000e+02  2.00000000e+01  0.00000000e+00
 4.10000000e+02  2.00000000e+01  0.00000000e+00
 4.20000000e+02  2.00000000e+01  0.00000000e+00
 4.30000000e+02  2.00000000e+01  0.00000000e+00
 4.40000000e+02  2.00000000e+01  0.00000000e+00
 4.50000000e+02  2.00000000e+01  0.00000000e+00
 4.60000000e+02  2.00000000e+01  0.00000000e+00
 4.70000000e+02  2.00000000e+01  0.00000000e+00
 4.80000000e+02  2.00000000e+01  0.00000000e+00
 4.90000000e+02  2.00000000e+01  0.00000000e+00
 5.00000000e+02  2.00000000e+01  0.00000000e+00
 5.10000000e+02  2.00000000e+01  0.00000000e+00
 0.00000000e+00  3.00000000e+01  0.00000000e+00
 1.00000000e+01  3.00000000e+01  0.00000000e+00
 2.00000000e+01  3.00000000e+01  0.00000000e+00
 3.00000000e+01  3.00000000e+01  0.00000000e+00
 4.00000000e+01  3.00000000e+01  0.00000000e+00
 5.00000000e+01  3.00000000e+01  0.00000000e+00
 6.00000000e+01  3.00000000e+01  0.00000000e+00
 7.00000000e+01  3.00000000e+01  0.00000000e+00
 8.00000000e+01  3.00000000e+01  0.00000000e+00
 9.00000000e+01  3.00000000e+01  0.00000000e+00
 1.00000000e+02  3.00000000e+01  0.00000000e+00
 1.10000000e+02  3.00000000e+01  0.00000000e+00
 1.20000000e+02  3.00000000e+01  0.00000000e+00
 1.30000000e+02  3.00000000e+01  0.00000000e+00
 1.40000000e+02  3.00000000e+01  0.00000000e+00
 1.50000000e+02  3.00000000e+01  0.00000000e+00
 1.60000000e+02  3.00000000e+01  0.00000000e+00
 1.70000000e+02  3.00000000e+01  0.00000000e+00
 1.80000000e+02  3.00000000e+01  0.00000000e+00
 1.90000000e+02  3.00000000e+01  0.00000000e+00
 2.00000000e+02  3.00000000e+01  0.00000000e+00
 2.10000000e+02  3.00000000e+01  0.00000000e+00
 2.20000000e+02  3.00000000e+01  0.00000000e+00
 2.30000000e+02  3.00000000e+01  0.00000000e+00
 2.40000000e+02  3.00000000e+01  0.00000000e+00
 2.50000000e+02  3.00000000e+01  0.00000000e+00
 2.60000000e+02  3.00000000e+01  0.00000000e+00
 2.70000000e+02  3.00000000e+01  0.00000000e+00
 2.80000000e+02  3.00000000e+01  0.00000000e+00
 2.90000000e+02  3.00000000e+01  0.00000000e+00
 3.00000000e+02  3.00000000e+01  0.00000000e+00
 3.10000000e+02  3.00000000e+01  0.00000000e+00
 3.20000000e+02  3.00000000e+01  0.00000000e+00
 3.30000000e+02  3.00000000e+01  0.00000000e+00
 3.40000000e+02  3.00000000e+01  0.00000000e+00
 3.50000000e+02  3.00000000e+01  0.00000000e+00
 3.60000000e+02  3.00000000e+01  0.00000000e+00
 3.70000000e+02  3.00000000e+01  0.00000000e+00
 3.80000000e+02  3.00000000e+01  0.00000000e+00
 3.90000000e+02  3.00000000e+01  0.00000000e+00
 4.00000000e+02  3.00000000e+01  0.00000000e+00
 4.10000000e+02  3.00000000e+01  0.00000000e+00
 4.20000000e+02  3.00000000e+01  0.00000000e+00
 4.30000000e+02  3.00000000e+01  0.00000000e+00
 4.40000000e+02  3.00000000e+01  0.00000000e+00
 4.50000000e+02  3.00000000e+01  0.00000000e+00
 4.60000000e+02  3.00000000e+01  0.00000000e+00
 4.70000000e+02  3.00000000e+01  0.00000000e+00
 4.80000000e+02  3.00000000e+01  0.00000000e+00
 4.90000000e+02  3.00000000e+01  0.00000000e+00
[...]
CELL_DATA      13005
SCALARS log(K) double
LOOKUP_TABLE default
-0.644939
-1.08651
-1.4548
-1.90174
-2.62773
-1.99684
-1.28222
-1.32208
-1.85211
-2.30887
-1.96878
-1.33537
-1.47839
-2.22566
-2.12447
-2.31894
-1.06964
-1.84363
-1.22352
-2.57753
-2.6675
-1.97135
-2.05734
-0.504969
-0.705465
-0.197251
0.0802546
0.952295
1.98295
1.67165
0.230807
0.383739
1.54351
1.22292
1.54548
1.67308
0.643533
-0.273512
-1.17259
-0.287644
0.774216
1.53949
0.41721
0.513292
1.70482
1.01446
1.53431
0.382666
-0.0875087
-0.434461
-1.38283
0.0576683
-0.273407
-1.58813
-2.13285
-1.94109
-2.05874
-1.5417
-1.38183
-1.9513
-1.5586
-1.92826
-1.68909
-2.65102
-1.52311
-1.28534
-1.29612
-0.900169
-0.775341
-1.6459
-2.51101
-2.38597
-1.54054
-1.70944
-1.05623
0.192871
-0.277965
-0.00785296
0.857438
0.852433
0.743658
0.818337
0.58699
1.59509
1.55137
2.09752
1.44763
0.58003
-0.317425
-0.15389
0.0917048
0.734554
0.993937
0.17862
0.529431
1.10185
1.8187
0.813388
0.283951
0.118052
-0.459407
-0.60166
0.22972
-0.0202676
-0.79146
-1.55428
-1.23439
-1.83355
-2.11865
-1.98052
-1.47416
-1.83797
-2.02342
-1.79997
-1.54621
-1.29024
-1.01538
-0.750914
-0.632417
-1.35504
-1.83084
-1.97263
-2.14168
-1.80367
-0.924185
-0.569851
0.065799
0.189635
-0.00732585
0.108456
0.636683
1.11078
1.21029
1.27592
0.522268
1.32047
1.83949
1.19256
0.468795
0.0772125
0.465047
0.640186
0.303624
0.982407
1.27841
0.558419
0.889123
0.715001
0.852161
0.222386
0.215894
-1.19315
-0.564896
-0.556365
-0.761002
-0.826937
-0.72118
-1.2314
-2.16973
-1.19686
-1.60424
-1.4176
-1.63077
-0.819805
-1.13886
-0.893441
-1.49954
-0.612164
-0.773251
-1.43932
-0.730594
-1.66685
-1.61997
-1.58032
-1.28849
-1.19536
0.977509
0.013467
0.189183
0.143694
-0.0959137
0.61557
0.753492
1.37324
0.176158
0.6432
1.00291
1.95864
1.03419
0.956014
0.977612
0.775835
0.752733
1.11614
1.57072
1.88166
1.10195
1.14302
0.881327
1.08538
0.172746
0.186882
-0.17521
-0.888278
-0.625174
-1.64563
-0.981429
-1.01391
-1.87692
-1.59005
-1.65717
-1.31524
-0.67224
-1.50398
-1.07984
-1.06374
-0.573013
-0.387787
-0.431183
-0.888341
-1.28896
-1.43122
-1.66512
-0.931422
-1.22884
-0.0922865
-0.314172
0.31043
0.164422
-1.44866
-0.379254
0.0847523
0.157351
0.483131
0.843107
0.0639232
0.0195684
1.02533
0.841342
0.79985
0.987701
0.305004
0.903879
1.28857
1.42817
1.06544
1.64111
1.28811
1.52766
1.01434
0.34932
0.450217
0.840058
0.998973
0.704365
-0.298047
-0.539005
-1.20591
-1.35391
-0.81868
-1.54989
-1.91284
-1.22601
-0.937861
-0.598981
-1.32113
0.115079
0.0844687
0.26276
0.0288634
-0.481992
-0.594398
-0.951372
-0.279421
-1.30018
-1.37218
-0.758184
-0.864595
-0.886852
-1.14418
-0.782677
-0.504811
0.240485
-0.0560966
-0.081161
0.308457
0.502167
0.41435
1.44172
0.458585
-0.0651732
1.14237
1.07667
1.59291
1.1471
1.15888
1.40189
1.96849
1.05891
0.30523
0.762734
0.0789497
0.575224
1.11469
1.63846
1.27417
0.616669
0.401801
-0.206062
-1.09468
-0.931437
-1.60574
-1.69665
-1.63058
-1.90018
-1.23508
-0.937924
-0.119173
0.0708346
-0.21458
-0.530878
-0.794799
-0.538744
0.0506576
-0.31855
-0.398739
-1.0762
-0.616281
0.001374
-0.788633
-1.00949
-0.820822
0.309241
-0.440742
0.0370031
0.13335
-0.628674
0.247463
0.442017
0.635155
-0.564407
-0.0942471
0.382842
1.32527
1.18062
0.972812
2.2278
1.9488
1.09103
1.35951
0.569119
0.568784
0.542543
0.419825
1.22371
1.81853
1.4292
0.340153
-0.693452
-1.09704
-1.47496
-1.07887
-1.34135
-1.48535
-1.64128
-1.55346
-1.34365
-0.926762
-0.564498
-0.402833
-0.703732
0.153081
-0.895031
-1.34733
-1.13991
-0.591924
-0.766815
-1.20722
-1.35916
-0.733718
-0.0325906
-0.195088
0.267603
0.841197
0.474044
0.240643
0.236978
0.515721
-0.0809006
-0.507165
-0.457856
0.0115485
0.452073
0.358607
-0.21556
0.452904
1.04051
2.23684
1.86895
1.19299
1.47274
1.14108
0.108462
0.224534
-0.863164
0.608582
1.22867
0.856033
0.23281
0.349969
-1.00272
-1.43392
-1.41356
-1.50453
-1.65755
-1.61595
-2.07252
-1.64753
-1.22072
-0.700351
-0.278392
0.101488
0.0572533
-1.59281
-0.767785
-1.1383
-0.755911
-1.15022
-1.14839
-0.995226
-1.1584
-0.320168
-0.66274
-0.352553
0.755767
0.591484
0.687191
-0.857946
0.12301
0.219839
-0.360452
-0.669805
-0.407944
0.148879
-0.0145847
0.252417
0.170597
1.79004
2.25783
1.53289
1.32175
1.88131
0.580001
0.0302372
0.309387
0.146483
0.858167
-0.319957
-0.211158
-0.472019
0.356539
0.580492
-0.399719
-0.879023
-1.33941
-1.53254
-1.84805
-1.12972
-1.87679
-1.51067
-0.83189
-0.711624
-0.246084
-0.757045
-1.06217
-0.839956
-0.817449
-1.35756
-1.19501
-1.08413
-0.130284
-0.268115
0.00570199
0.38511
0.201602
-0.321537
0.154869
0.532933
0.569403
0.974642
-0.443484
-0.338655
-0.0575197
-0.28061
-0.0564546
-0.354333
-0.813948
0.229693
1.95572
1.90027
1.49072
1.034
1.18263
0.356758
0.630244
1.01204
0.587433
0.391459
-0.226332
-0.745988
0.341001
0.0696775
-0.303776
-0.185167
-0.261362
-0.605647
-1.33011
-1.76917
-2.05765
-1.73126
-1.46036
-0.420712
-0.263709
-0.179766
-0.416049
0.0212202
0.167639
-0.563108
-0.67244
-0.632109
-0.429848
0.315768
-0.140263
-0.0680188
0.136379
-0.17518
-0.367382
-0.092082
0.999356
0.991584
0.896905
0.382332
0.369751
0.0136569
-1.04909
0.184108
-1.10609
-0.116265
0.537653
0.839362
1.78265
0.815705
1.29371
0.744818
0.204496
0.543989
0.852108
0.36256
-0.010915
-0.682274
0.368706
0.560637
0.735082
1.00284
0.375214
-0.44466
-0.585208
-0.498004
-1.89807
-2.20321
-1.21292
-1.0473
0.0438846
0.0513156
0.112
0.839376
0.836925
-0.0808741
0.107842
-0.0719819
-0.114356
-0.403203
0.355
0.802741
0.662142
0.201927
0.348498
-0.399831
-0.145681
0.839294
0.455054
0.790627
-0.384645
-0.735531
-0.982806
-0.593804
0.219144
-0.0348445
0.876634
0.597623
1.48034
1.27977
1.70873
1.39022
1.06269
0.0734476
1.11736
0.576694
-0.239168
-0.0368561
0.0541783
0.99662
1.3104
1.41427
0.3066
0.946093
0.326709
0.0875624
-0.202507
-1.95399
-1.30346
-1.17702
-0.235525
-0.825566
0.134604
0.723401
1.50398
1.22087
0.628279
0.153932
0.755639
0.193497
-0.460236
0.390521
0.413503
0.760792
0.0300256
-0.338867
0.260317
-0.278348
0.473339
-0.374064
-0.377516
-0.391997
-1.08631
-1.60978
0.266899
0.126585
0.302424
0.0667357
0.54937
1.18558
1.0621
0.925478
0.311842
0.833493
0.829564
0.662743
0.172123
-0.261653
0.114526
0.0432457
0.219946
1.27617
1.78839
0.270838
0.340239
0.726979
-0.405667
-0.613889
-1.97037
-2.06599
-1.11503
-0.705629
-1.43791
0.347774
1.50941
1.94215
0.885945
0.455012
0.0767845
1.34303
0.190312
-0.310181
0.274303
-0.209735
0.476344
0.390883
0.925986
-0.0945226
-0.43739
-0.160866
-0.175407
0.0119587
-0.456697
-0.782892
-0.8715
0.689148
0.513682
-0.686967
0.0503888
0.723508
1.08421
1.77279
1.34405
1.04077
1.2138
0.8125
0.0311759
-0.625242
-1.4398
-0.171412
-0.368909
-0.128047
1.49746
1.30834
0.444094
0.75112
0.363912
0.142468
-1.03752
-0.829391
-0.761581
-1.65343
-1.07821
-0.240257
0.266726
0.669219
1.53031
1.42455
0.552444
0.42529
1.04806
0.67998
0.307115
0.425437
0.474949
0.22693
-0.364391
-0.161651
-0.43293
-1.06993
-0.864993
0.13695
0.124197
-0.423947
-0.883434
-0.348605
-0.0844762
0.60564
0.187099
0.0675795
-0.0555053
0.504938
0.529498
0.487826
1.32512
0.91423
-0.440933
-0.664201
-1.80262
-1.79389
-1.54576
-0.48649
0.539575
0.200013
0.626229
0.977977
1.35995
0.595471
0.381246
-0.58325
-0.828541
-0.748151
-1.23688
-0.981827
-0.245383
0.821869
0.710457
1.60158
0.9967
0.951976
1.2837
1.06126
0.732652
0.610222
0.345383
1.16114
0.764899
-0.662298
-0.338089
-0.0496218
-0.910934
-0.48981
0.118837
-0.0779945
-0.0941075
0.295263
0.648234
0.136022
0.759393
0.552503
0.723423
0.652914
0.773735
-0.0445863
1.77586
0.834676
0.0963105
0.0891311
-0.990914
-1.34858
-1.0665
-1.3807
-1.4276
-1.19457
-0.695012
0.347867
1.23044
0.1137
1.09314
0.725614
0.137601
-1.0933
-0.628999
-1.01547
-0.0821557
0.637738
0.805151
1.31084
1.76673
1.52546
1.9118
1.20557
1.56213
0.603297
1.18448
0.460897
0.242881
0.848216
0.054879
0.00595802
-0.586503
-0.723453
-1.48187
-0.578151
-0.460299
-0.254685
-0.283941
0.399102
0.389959
0.373933
0.445467
0.916295
-0.0512256
0.0850703
0.568195
1.39093
0.854315
0.102186
-0.578386
-1.41014
-1.19237
-1.37098
-1.15715
-1.53394
-0.964397
-0.446691
0.182953
1.02915
1.25223
0.864777
0.388102
-0.660824
-0.952933
-0.50463
0.226177
0.544303
0.157566
1.15621
1.56323
1.92708
1.86028
1.39083
0.990916
0.724771
0.459081
0.87365
0.0952223
0.141032
0.278013
0.660039
0.19311
0.669678
0.343929
-0.38194
-0.231875
-0.294005
-0.279604
-0.598721
-1.04737
-0.66329
-0.76921
-0.30272
-0.347161
-0.363516
-0.27738
-0.189862
-0.00466168
0.501786
-0.0881514
0.384401
-0.767892
-1.04734
-1.03905
0.0385221
0.132864
0.0880621
-0.478423
-0.20764
1.22711
1.0469
0.928343
-0.248964
-0.0707173
-1.24733
-0.205883
-0.520888
0.114293
1.04489
0.990659
1.7826
1.35199
1.37308
1.06093
0.58678
-0.497724
-0.23934
0.175255
0.597933
0.959173
0.624349
1.06341
0.230139
0.44356
0.705494
0.848151
-0.321255
-0.471519
-0.832992
-0.879054
-0.507728
-1.0264
-0.884342
-1.69083
-0.557561
-0.627388
-0.704134
-0.191711
-0.52723
-0.0310475
-0.186975
-0.389448
-0.3335
-0.965179
-1.03312
-0.608696
0.13342
0.35287
-0.145996
-0.960348
0.301612
0.382617
0.410438
-0.060278
0.239655
-0.579216
-0.815278
0.0592645
0.505152
0.92265
0.0178303
1.35114
0.844032
0.173463
0.144249
-0.0965048
-0.092411
-0.261616
0.438406
0.973626
1.26892
1.11354
1.00217
0.95116
0.0296554
-0.613401
0.571902
0.285865
0.115783
-0.606944
-0.240914
-0.93523
-0.945714
-0.777735
-0.464007
0.155392
-0.364854
0.0936581
-0.0394574
0.811685
-0.402233
0.20677
0.299629
-0.608856
-0.898401
-1.02724
0.422782
0.357199
0.79468
-0.470282
-0.340271
0.24391
0.123554
-0.269122
0.222163
-0.0255009
0.265212
-0.320931
0.74177
0.021749
0.0249595
0.194561
-0.300657
0.00135845
0.0177095
-0.38745
-0.384072
-0.279979
-0.537142
-0.0644987
0.0859717
-0.196049
0.604858
0.610723
0.614961
0.644473
1.02232
0.36921
0.88966
-0.255785
-0.98735
-0.455061
-0.0986871
-0.866962
-0.1577
-0.262471
-0.384334
-0.470678
-0.0433095
0.332422
0.196566
-0.772813
0.338131
0.356078
-0.148002
-0.944766
-0.309433
-0.0615426
0.238931
-0.347099
-0.68317
-0.980875
-0.216567
0.295555
0.728215
0.560595
-0.146053
0.425797
-0.271036
0.743972
-0.512575
-0.0893473
-0.384207
-0.194914
0.206806
0.114529
0.39233
-0.620874
0.452711
-0.63907
-0.314245
-0.723825
0.112585
0.434252
0.46169
0.258529
0.27389
0.172041
0.233061
0.663502
0.471232
-0.374796
-0.921189
-0.58139
-0.438742
0.135133
-0.495516
-0.626685
-1.38859
-0.530409
0.356919
0.702079
-0.0256724
0.616262
0.0633608
-0.444659
-0.22958
-0.197999
-0.102527
0.118481
-0.0761087
-1.45426
-0.775295
-0.53051
-0.226622
-0.057448
0.398217
-0.0485805
-0.0678509
0.484479
-0.47907
-1.24967
-1.24548
-1.48992
-0.6333
0.542019
-0.481107
-0.27565
-1.10224
-0.949197
-0.145681
-0.372119
-0.410227
0.234895
0.24316
1.10397
0.869796
1.53736
0.485952
0.391851
0.441004
0.421337
0.0303683
-0.0866696
0.102282
-0.0719582
-0.65086
-1.06427
-1.64019
-1.22225
-1.2452
-0.420348
-0.206592
0.441786
0.230483
-0.595525
-0.328913
-0.152171
-0.165826
-0.882609
-0.518471
-0.167038
-1.98153
-0.687763
-0.322568
0.400886
0.0703111
0.259698
-0.521206
-0.630952
0.0110553
0.0980461
-0.748107
-1.28762
-0.580948
0.407039
1.27682
0.244162
-0.612439
-0.211197
0.339461
-0.16226
-0.0632452
-1.70142
-0.645251
-0.132783
1.10192
1.20445
1.44759
0.72436
1.26619
0.597983
-0.117642
0.0310883
0.180247
-0.00491966
0.449784
-0.469173
-1.34246
-1.55852
-1.29594
-1.53787
-0.667366
0.0358169
-0.351494
0.680477
-0.0835591
-0.82954
-0.489329
-1.11577
-1.76988
-1.40238
-0.701474
-0.533824
-0.968611
-0.502194
-0.521847
0.321721
-0.334688
-0.221738
-0.0542405
-0.461965
-0.224368
0.0366519
0.394797
0.90404
0.872072
0.47789
0.789197
0.247808
-0.321122
0.251008
0.609139
-0.51583
-1.64309
-0.250663
0.0909268
0.67905
0.862847
1.0009
0.071136
1.2258
1.68448
1.3724
-0.0606652
0.0888042
-0.0875479
0.274516
-0.338919
-0.800282
-1.73612
-2.08695
-0.440469
0.244613
0.368162
-0.0483647
0.298147
-1.29377
-1.79405
-1.55546
-1.43294
-1.77904
-1.84189
-1.4583
-1.34462
-0.208586
-0.607754
-1.15169
-0.904049
-0.298647
-0.520201
-0.537954
-0.12963
0.0378714
0.280605
0.641054
0.106012
0.758196
0.459688
0.685386
0.467965
-0.426046
0.118213
0.945898
-0.401886
-1.24266
-0.347851
0.437532
0.0202007
0.00166587
-0.206105
0.368808
0.467525
1.20631
0.748122
-0.268372
0.0408183
-0.280566
0.0957662
-1.40745
-1.87963
-2.4025
-2.1269
-1.63223
-0.517761
0.625391
-0.652575
-0.315309
-0.816502
-1.36634
-1.08995
-1.24294
-1.64862
-1.08604
-0.722199
-0.369635
-0.559778
-0.681872
-0.57211
-0.475486
-0.100305
-0.440399
-0.667747
0.722086
0.17595
1.17269
0.775606
0.745716
0.0389596
1.18593
0.86801
-0.175842
0.104885
0.63262
0.205557
-0.0844157
-1.00292
-0.987621
-0.21664
-0.610489
-0.159265
-0.588062
-0.510025
0.0316764
0.683761
0.515503
-0.255465
-0.0359744
-0.747329
-0.501142
-1.05555
-1.50108
-1.12482
-1.73313
-1.42719
-1.16081
-0.713857
-0.750117
-1.36271
-0.857432
-0.876967
-1.13449
-0.284396
-0.65344
-1.38289
-1.32755
-0.755384
-0.831929
-0.654919
-0.54809
0.421387
0.385909
0.887053
0.399146
0.172777
0.168477
0.221469
1.36678
1.21302
0.831535
0.460838
0.674188
0.214947
0.170999
0.269303
1.02959
0.274534
-0.799875
-1.57649
-1.21344
-1.17124
-0.0711322
-0.125264
-0.447691
0.0254797
-0.333775
0.0115038
-0.273006
-0.749896
-0.0317544
-0.508638
-1.72525
-1.23746
-2.05505
-0.660808
-1.11076
-0.699411
-1.06994
-1.44303
-1.30336
-1.74482
-1.64608
-1.52324
-0.227697
0.176737
-0.731065
-1.08471
-0.620433
-0.307017
-0.0563703
-0.154025
0.484466
-0.0239142
0.0936535
1.35929
-0.220189
0.491054
1.48983
1.74864
1.59031
2.18545
0.936961
0.675147
0.272417
0.469533
0.669979
1.16813
0.527563
-0.177054
-0.783369
-0.889644
-0.901945
-0.887761
-0.748941
-0.733775
-0.570814
-0.530399
-1.68975
-1.375
-0.781247
-0.479777
-0.589985
-0.723058
-1.17763
-1.82859
-0.692299
-0.855784
-1.49221
-1.42749
-1.5537
-1.78918
-3.11576
-1.92486
-0.279894
0.404299
0.312103
0.249335
-0.298006
-0.374962
0.0692567
0.693827
0.00398877
0.283694
0.253669
0.870865
0.926958
0.885763
1.04078
1.99798
2.08259
1.4353
1.21492
0.556763
1.10668
1.42479
1.31015
1.60429
0.844051
0.0305616
0.166541
-0.260386
-1.65773
-0.851771
-0.991894
-0.706303
-0.523722
0.343179
-1.03194
-1.59562
-1.98477
-1.50142
-1.12167
-1.36727
-1.02771
-0.948993
-1.4991
-0.634338
-0.945443
-1.93897
-1.79738
-2.97956
-1.79456
-1.89455
-0.893338
0.303455
0.0615178
-0.0218444
0.281265
1.00487
-0.297413
0.886734
1.28192
0.468177
0.504036
1.51985
1.30828
1.04071
0.913182
1.39089
1.81039
2.68843
1.38114
1.57042
1.77536
1.68478
1.63561
1.21738
1.29364
1.49692
0.874653
0.45207
0.198015
-0.492798
-1.3862
-1.71497
-1.30349
-0.846418
-0.0363031
-1.46005
-1.08695
-1.22606
-1.42196
-1.88979
-1.78357
-1.27242
-2.19563
-1.74225
-1.04892
-1.75737
-2.17379
-2.05753
-1.63732
-2.07333
-1.34477
-1.48184
-0.217736
0.168586
0.83628
0.694133
0.44708
0.401899
0.962
1.06981
1.18031
0.590674
0.314328
0.190269
0.176351
1.13111
0.440212
1.86565
1.47646
2.17111
1.44071
0.493048
0.611678
1.53766
1.85269
1.74376
0.699499
0.83009
0.349669
0.966367
0.424377
-0.530509
-1.02779
-1.22762
-0.501624
-0.784787
-2.16522
-2.13269
-1.6461
-1.69803
-1.58551
-1.20387
-1.32826
-1.22713
-1.3791
-0.705331
-0.584272
-1.35745
-1.18225
-1.87746
-1.42935
-0.757557
-1.89552
-0.969924
-0.718914
-0.276259
0.0445579
0.890708
0.00837185
0.324058
0.338577
-0.140991
-0.319912
-0.952498
-0.0345598
0.0477593
0.193301
0.382216
1.6826
1.89159
1.2379
2.16763
1.02193
1.13326
1.38431
1.44414
0.848701
0.794542
0.971728
0.393019
0.371523
0.408474
-0.577874
-0.00823453
-0.0787477
-0.686994
-1.17677
-1.76777
-2.20967
-0.868783
-1.90761
-1.81909
-1.68699
-0.862453
-2.13621
-1.59965
-1.29234
-0.932469
-0.937431
-1.41502
-1.69993
-1.79837
-1.92271
-1.46349
-0.900394
-0.17998
-0.845813
-0.605453
0.202272
0.474537
-0.110129
-0.0942565
0.37372
0.552237
-0.212255
-0.090375
-0.350516
0.33887
0.596515
0.450574
1.90695
2.07053
1.96263
2.44293
2.27647
1.90572
0.895112
0.975129
1.34537
0.242082
-0.00327159
-0.0241016
0.226073
-0.13944
0.211267
0.202961
-0.535777
-0.288463
-1.35327
-1.65975
-2.3549
-0.936022
-1.46748
-2.15535
-1.84531
-1.70972
-1.41352
-1.64025
-1.81567
-0.991577
-1.65202
-1.2013
-1.37578
-1.67705
-1.82466
-1.32754
-1.31522
-1.03582
-0.700332
-0.363558
0.63012
0.45596
-0.487537
0.409996
0.21905
0.0658081
-0.526224
-0.85142
-0.392273
0.334284
1.87411
2.3177
2.71706
2.38585
3.14829
2.16421
2.23707
1.88299
1.19865
0.94862
0.58725
0.194121
0.518169
-0.0918239
0.382484
0.331476
0.640865
0.72132
-0.0201877
-0.222625
-1.84601
-2.39985
-1.77341
-1.6738
-1.47345
-2.30233
-2.11131
-0.846025
-2.24216
-2.48448
-2.03385
-1.54042
-0.87984
-1.14292
0.589018
-1.46195
-1.14093
-1.56939
-0.645213
-0.730007
-0.259693
-0.108397
-0.0933769
-1.0467
-0.492553
-0.146338
-0.333465
-0.806363
-1.18936
0.487087
1.35134
1.07302
2.37437
2.76206
2.89115
3.58894
3.07645
2.30905
2.69118
0.761968
0.511168
0.234697
-0.00995036
0.958267
0.263807
0.316079
0.115555
-0.0745007
-0.126975
0.042031
-1.07554
-0.676134
-1.07556
-1.11139
-0.8809
-0.385788
-0.715912
-0.758767
-0.776202
-1.14019
-1.63819
-1.14786
-0.974514
-0.669768
-0.443088
-0.743051
-1.00957
-1.211
-1.65274
-1.47875
-1.26171
-0.629554
0.417603
-0.329146
-0.66582
-0.63196
-0.0829744
-0.309573
-0.748772
0.135719
-0.482001
1.18266
1.69657
1.94464
3.57145
3.71168
3.53265
3.35524
3.28419
2.94668
1.88575
1.92738
1.06911
0.326453
0.571739
-0.0790916
0.517021
-0.189529
0.0443223
0.101547
0.138929
-0.698941
-0.9151
-0.83216
0.168426
0.117586
0.0760356
-0.650772
-0.427874
-1.10283
-0.560534
-0.989425
-1.22989
-0.707132
-0.351718
-1.50287
-1.90783
-0.63495
-1.83455
-1.62109
-1.06154
-0.604245
-1.59957
0.426066
-0.665098
-1.42373
-0.78419
-0.234848
0.189956
-0.256927
0.748109
0.239016
0.989554
1.35204
1.92268
2.63161
2.95343
1.85689
3.13217
3.06843
3.16115
3.16455
2.6203
1.05398
0.341943
1.11652
0.301463
0.3367
0.0608573
-0.38761
-0.866414
-0.0149142
-0.0369597
1.27086
0.896441
0.417476
0.128615
0.404796
0.47379
0.214583
-1.0184
-0.969941
-0.72035
-1.05491
-0.240495
0.0799423
-0.518028
-0.800935
-0.858384
-0.292577
-0.860078
-0.773641
-0.272083
-0.905126
-0.300848
-1.07306
-0.867576
-0.948038
-0.548501
-0.547099
0.157341
0.188658
0.55666
0.597269
0.958291
1.15282
2.5898
2.77413
1.99658
1.40379
1.8764
2.9476
3.26927
2.48205
1.12427
0.97109
0.933818
0.0119974
0.151989
-0.396165
-0.0260245
-0.586269
-0.910249
-0.279249
0.197935
0.717666
0.458531
0.216113
0.289338
0.0140127
-0.00901037
0.240036
-0.0572973
-0.339291
-0.376917
-0.886644
-1.01585
-0.387682
-0.591909
-0.144592
-0.221776
0.0137421
-0.806598
-0.853861
-0.359328
-0.0423007
-1.45418
-0.680132
-0.781073
-0.436449
-0.140355
-0.804247
0.372018
0.617716
1.62797
1.41055
0.594379
1.39046
1.4837
1.13451
1.47335
1.94781
2.16598
2.39
1.53333
0.832095
0.545161
0.468857
0.352454
-0.161542
-0.472939
-0.479665
-0.831765
-0.854754
-1.11533
-0.312861
0.0491774
0.128924
0.704012
1.04778
0.144578
-0.591333
-0.111169
0.402146
0.0560333
-0.525243
-0.846652
0.0863092
-0.0314155
0.213295
0.574765
0.685505
0.189592
-0.583501
-0.755191
-0.873211
-0.280166
-1.11138
-1.4224
-0.489186
-0.20937
-0.324354
-0.859925
-0.655831
-1.05884
-0.412032
0.713744
0.843522
0.501653
1.23797
0.686044
0.185305
1.01207
1.2677
1.4367
1.40996
-0.12498
-0.245408
0.254462
0.774051
-0.104853
-0.987774
-0.491932
-0.574019
-1.28049
-1.27251
-0.655781
-0.0841074
0.246938
-0.0218059
-0.251802
-0.24858
-0.654254
-0.237055
0.340216
0.917669
-0.431802
0.051321
0.170591
0.557668
0.7303
-0.218523
0.477947
0.0360244
-0.31799
0.302719
-0.478494
-0.228815
-0.327557
0.255066
0.478533
0.181191
-0.782268
-0.461019
-1.45714
-1.36852
-1.0636
-0.494567
-0.125898
0.140029
0.767563
0.2658
0.0242676
0.271338
0.20703
0.607793
1.137
0.496622
-0.0608702
-0.802159
-0.530579
-1.11705
-0.498867
-0.395657
-1.25073
-0.838355
-1.35304
-1.47714
-1.02875
-0.509748
-0.589107
0.281089
-0.430892
-0.194246
-0.388183
-0.54012
0.602148
-0.167574
-0.313938
0.428645
-0.014412
0.173527
0.39456
0.72562
0.0114625
0.00308211
-0.0913226
-0.460497
-0.940291
-0.253787
-0.0893186
0.269385
0.425073
-0.243525
-0.381242
-0.735089
-0.842575
-1.20694
-0.520765
-0.730355
0.0760956
0.265442
0.207311
0.349764
0.519389
0.396948
0.238602
0.126852
0.00490244
0.0343728
-0.31983
0.180384
0.0937729
-0.137464
0.574179
-0.902254
-1.2349