# vtk DataFile Version 3.0
vtk output
ASCII
DATASET UNSTRUCTURED_GRID
POINTS      16224 float
 0.00000000e+00  0.00000000e+00  0.00000000e+00
 1.00000000e+01  0.00000000e+00  0.00000000e+00
 2.00000000e+01  0.00000000e+00  0.00000000e+00
 3.00000000e+01  0.00000000e+00  0.00000000e+00
 4.00000000e+01  0.00000000e+00  0.00000000e+00
 5.00000000e+01  0.00000000e+00  0.00000000e+00
 6.00000000e+01  0.00000000e+00  0.00000000e+00
 7.00000000e+01  0.00000000e+00  0.00000000e+00
 8.00000000e+01  0.00000000e+00  0.00000000e+00
 9.00000000e+01  0.00000000e+00  0.00000000e+00
 1.00000000e+02  0.00000000e+00  0.00000000e+00
 1.10000000e+02  0.00000000e+00  0.00000000e+00
 1.20000000e+02  0.00000000e+00  0.00000000e+00
 1.30000000e+02  0.00000000e+00  0.00000000e+00
 1.40000000e+02  0.00000000e+00  0.00000000e+00
 1.50000000e+02  0.00000000e+00  0.00000000e+00
 1.60000000e+02  0.00000000e+00  0.00000000e+00
 1.70000000e+02  0.00000000e+00  0.00000000e+00
 1.80000000e+02  0.00000000e+00  0.00000000e+00
 1.90000000e+02  0.00000000e+00  0.00000000e+00
 2.00000000e+02  0.00000000e+00  0.00000000e+00
 2.10000000e+02  0.00000000e+00  0.00000000e+00
 2.20000000e+02  0.00000000e+00  0.00000000e+00
 2.30000000e+02  0.00000000e+00  0.00000000e+00
 2.40000000e+02  0.00000000e+00  0.00000000e+00
 2.50000000e+02  0.00000000e+00  0.00000000e+00
 2.60000000e+02  0.00000000e+00  0.00000000e+00
 2.70000000e+02  0.00000000e+00  0.00000000e+00
 2.80000000e+02  0.00000000e+00  0.00000000e+00
 2.90000000e+02  0.00000000e+00  0.00000000e+00
 3.00000000e+02  0.00000000e+00  0.00000000e+00
 3.10000000e+02  0.00000000e+00  0.00000000e+00
 3.20000000e+02  0.00000000e+00  0.00000000e+00
 3.30000000e+02  0.00000000e+00  0.00000000e+00
 3.40000000e+02  0.00000000e+00  0.00000000e+00
 3.50000000e+02  0.00000000e+00  0.00000000e+00
 3.60000000e+02  0.00000000e+00  0.00000000e+00
 3.70000000e+02  0.00000000e+00  0.00000000e+00
 3.80000000e+02  0.00000000e+00  0.00000000e+00
 3.90000000e+02  0.00000000e+00  0.00000000e+00
 4.00000000e+02  0.00000000e+00  0.00000000e+00
 4.10000000e+02  0.00000000e+00  0.00000000e+00
 4.20000000e+02  0.00000000e+00  0.00000000e+00
 4.30000000e+02  0.00000000e+00  0.00000000e+00
 4.40000000e+02  0.00000000e+00  0.00000000e+00
 4.50000000e+02  0.00000000e+00  0.00000000e+00
 4.60000000e+02  0.00000000e+00  0.00000000e+00
 4.70000000e+02  0.00000000e+00  0.00000000e+00
 4.80000000e+02  0.00000000e+00  0.00000000e+00
 4.90000000e+02  0.00000000e+00  0.00000000e+00
 5.00000000e+02  0.00000000e+00  0.00000000e+00
 5.10000000e+02  0.00000000e+00  0.00000000e+00
 0.00000000e+00  1.00000000e+01  0.00000000e+00
 1.00000000e+01  1.00000000e+01  0.00000000e+00
 2.00000000e+01  1.00000000e+01  0.00000000e+00
 3.00000000e+01  1.00000000e+01  0.00000000e+00
 4.00000000e+01  1.00000000e+01  0.00000000e+00
 5.00000000e+01  1.00000000e+01  0.00000000e+00
 6.00000000e+01  1.00000000e+01  0.00000000e+00
 7.00000000e+01  1.00000000e+01  0.00000000e+00
 8.00000000e+01  1.00000000e+01  0.00000000e+00
 9.00000000e+01  1.00000000e+01  0.00000000e+00
 1.00000000e+02  1.00000000e+01  0.00000000e+00
 1.10000000e+02  1.00000000e+01  0.00000000e+00
 1.20000000e+02  1.00000000e+01  0.00000000e+00
 1.30000000e+02  1.00000000e+01  0.00000000e+00
 1.40000000e+02  1.00000000e+01  0.00000000e+00
 1.50000000e+02  1.00000000e+01  0.00000000e+00
 1.60000000e+02  1.00000000e+01  0.00000000e+00
 1.70000000e+02  1.00000000e+01  0.00000000e+00
 1.80000000e+02  1.00000000e+01  0.00000000e+00
 1.90000000e+02  1.00000000e+01  0.00000000e+00
 2.00000000e+02  1.00000000e+01  0.00000000e+00
 2.10000000e+02  1.00000000e+01  0.00000000e+00
 2.20000000e+02  1.00000000e+01  0.00000000e+00
 2.30000000e+02  1.00000000e+01  0.00000000e+00
 2.40000000e+02  1.00000000e+01  0.00000000e+00
 2.50000000e+02  1.00000000e+01  0.00000000e+00
 2.60000000e+02  1.00000000e+01  0.00000000e+00
 2.70000000e+02  1.00000000e+01  0.00000000e+00
 2.80000000e+02  1.00000000e+01  0.00000000e+00
 2.90000000e+02  1.00000000e+01  0.00000000e+00
 3.00000000e+02  1.00000000e+01  0.00000000e+00
 3.10000000e+02  1.00000000e+01  0.00000000e+00
 3.20000000e+02  1.00000000e+01  0.00000000e+00
 3.30000000e+02  1.00000000e+01  0.00000000e+00
 3.40000000e+02  1.00000000e+01  0.00000000e+00
 3.50000000e+02  1.00000000e+01  0.00000000e+00
 3.60000000e+02  1.00000000e+01  0.00000000e+00
 3.70000000e+02  1.00000000e+01  0.00000000e+00
 3.80000000e+02  1.00000000e+01  0.00000000e+00
 3.90000000e+02  1.00000000e+01  0.00000000e+00
 4.00000000e+02  1.00000000e+01  0.00000000e+00
 4.10000000e+02  1.00000000e+01  0.00000000e+00
 4.20000000e+02  1.00000000e+01  0.00000000e+00
 4.30000000e+02  1.00000000e+01  0.00000000e+00
 4.40000000e+02  1.00000000e+01  0.00000000e+00
 4.50000000e+02  1.00000000e+01  0.00000000e+00
 4.60000000e+02  1.00000000e+01  0.00000000e+00
 4.70000000e+02  1.00000000e+01  0.00000000e+00
 4.80000000e+02  1.00000000e+01  0.00000000e+00
 4.90000000e+02  1.00000000e+01  0.00000000e+00
 5.00000000e+02  1.00000000e+01  0.00000000e+00
 5.10000000e+02  1.00000000e+01  0.00000000e+00
 0.00000000e+00  2.00000000e+01  0.00000000e+00
 1.00000000e+01  2.00000000e+01  0.00000000e+00
 2.00000000e+01  2.00000000e+01  0.00000000e+00
 3.00000000e+01  2.00000000e+01  0.00000000e+00
 4.00000000e+01  2.00000000e+01  0.00000000e+00
 5.00000000e+01  2.00000000e+01  0.00000000e+00
 6.00000000e+01  2.00000000e+01  0.00000000e+00
 7.00000000e+01  2.00000000e+01  0.00000000e+00
 8.00000000e+01  2.00000000e+01  0.00000000e+00
 9.00000000e+01  2.00000000e+01  0.00000000e+00
 1.00000000e+02  2.00000000e+01  0.00000000e+00
 1.10000000e+02  2.00000000e+01  0.00000000e+00
 1.20000000e+02  2.00000000e+01  0.00000000e+00
 1.30000000e+02  2.00000000e+01  0.00000000e+00
 1.40000000e+02  2.00000000e+01  0.00000000e+00
 1.50000000e+02  2.00000000e+01  0.00000000e+00
 1.60000000e+02  2.00000000e+01  0.00000000e+00
 1.70000000e+02  2.00000000e+01  0.00000000e+00
 1.80000000e+02  2.00000000e+01  0.00000000e+00
 1.90000000e+02  2.00000000e+01  0.00000000e+00
 2.00000000e+02  2.00000000e+01  0.00000000e+00
 2.10000000e+02  2.00000000e+01  0.00000000e+00
 2.20000000e+02  2.00000000e+01  0.00000000e+00
 2.30000000e+02  2.00000000e+01  0.00000000e+00
 2.40000000e+02  2.00000000e+01  0.00000000e+00
 2.50000000e+02  2.00000000e+01  0.00000000e+00
 2.60000000e+02  2.00000000e+01  0.00000000e+00
 2.70000000e+02  2.00000000e+01  0.00000000e+00
 2.80000000e+02  2.00000000e+01  0.00000000e+00
 2.90000000e+02  2.00000000e+01  0.00000000e+00
 3.00000000e+02  2.00000000e+01  0.00000000e+00
 3.10000000e+02  2.00000000e+01  0.00000000e+00
 3.20000000e+02  2.00000000e+01  0.00000000e+00
 3.30000000e+02  2.00000000e+01  0.00000000e+00
 3.40000000e+02  2.00000000e+01  0.00000000e+00
 3.50000000e+02  2.00000000e+01  0.00000000e+00
 3.60000000e+02  2.00000000e+01  0.00000000e+00
 3.70000000e+02  2.00000000e+01  0.00000000e+00
 3.80000000e+02  2.00000000e+01  0.00000000e+00
 3.90000000e+02  2.00000000e+01  0.00000000e+00
 4.00000000e+02  2.00000000e+01  0.00000000e+00
 4.10000000e+02  2.00000000e+01  0.00000000e+00
 4.20000000e+02  2.00000000e+01  0.00000000e+00
 4.30000000e+02  2.00000000e+01  0.00000000e+00
 4.40000000e+02  2.00000000e+01  0.00000000e+00
 4.50000000e+02  2.00000000e+01  0.00000000e+00
 4.60000000e+02  2.00000000e+01  0.00000000e+00
 4.70000000e+02  2.00000000e+01  0.00000000e+00
 4.80000000e+02  2.00000000e+01  0.00000000e+00
 4.90000000e+02  2.00000000e+01  0.00000000e+00
 5.00000000e+02  2.00000000e+01  0.00000000e+00
 5.10000000e+02  2.00000000e+01  0.00000000e+00
 0.00000000e+00  3.00000000e+01  0.00000000e+00
 1.00000000e+01  3.00000000e+01  0.00000000e+00
 2.00000000e+01  3.00000000e+01  0.00000000e+00
 3.00000000e+01  3.00000000e+01  0.00000000e+00
 4.00000000e+01  3.00000000e+01  0.00000000e+00
 5.00000000e+01  3.00000000e+01  0.00000000e+00
 6.00000000e+01  3.00000000e+01  0.00000000e+00
 7.00000000e+01  3.00000000e+01  0.00000000e+00
 8.00000000e+01  3.00000000e+01  0.00000000e+00
 9.00000000e+01  3.00000000e+01  0.00000000e+00
 1.00000000e+02  3.00000000e+01  0.00000000e+00
 1.10000000e+02  3.00000000e+01  0.00000000e+00
 1.20000000e+02  3.00000000e+01  0.00000000e+00
 1.30000000e+02  3.00000000e+01  0.00000000e+00
 1.40000000e+02  3.00000000e+01  0.00000000e+00
 1.50000000e+02  3.00000000e+01  0.00000000e+00
 1.60000000e+02  3.00000000e+01  0.00000000e+00
 1.70000000e+02  3.00000000e+01  0.00000000e+00
 1.80000000e+02  3.00000000e+01  0.00000000e+00
 1.90000000e+02  3.00000000e+01  0.00000000e+00
 2.00000000e+02  3.00000000e+01  0.00000000e+00
 2.10000000e+02  3.00000000e+01  0.00000000e+00
 2.20000000e+02  3.00000000e+01  0.00000000e+00
 2.30000000e+02  3.00000000e+01  0.00000000e+00
 2.40000000e+02  3.00000000e+01  0.00000000e+00
 2.50000000e+02  3.00000000e+01  0.00000000e+00
 2.60000000e+02  3.00000000e+01  0.00000000e+00
 2.70000000e+02  3.00000000e+01  0.00000000e+00
 2.80000000e+02  3.00000000e+01  0.00000000e+00
 2.90000000e+02  3.00000000e+01  0.00000000e+00
 3.00000000e+02  3.00000000e+01  0.00000000e+00
 3.10000000e+02  3.00000000e+01  0.00000000e+00
 3.20000000e+02  3.00000000e+01  0.00000000e+00
 3.30000000e+02  3.00000000e+01  0.00000000e+00
 3.40000000e+02  3.00000000e+01  0.00000000e+00
 3.50000000e+02  3.00000000e+01  0.00000000e+00
 3.60000000e+02  3.00000000e+01  0.00000000e+00
 3.70000000e+02  3.00000000e+01  0.00000000e+00
 3.80000000e+02  3.00000000e+01  0.00000000e+00
 3.90000000e+02  3.00000000e+01  0.00000000e+00
 4.00000000e+02  3.00000000e+01  0.00000000e+00
 4.10000000e+02  3.00000000e+01  0.00000000e+00
 4.20000000e+02  3.00000000e+01  0.00000000e+00
 4.30000000e+02  3.00000000e+01  0.00000000e+00
 4.40000000e+02  3.00000000e+01  0.00000000e+00
 4.50000000e+02  3.00000000e+01  0.00000000e+00
 4.60000000e+02  3.00000000e+01  0.00000000e+00
 4.70000000e+02  3.00000000e+01  0.00000000e+00
 4.80000000e+02  3.00000000e+01  0.00000000e+00
 4.90000000e+02  3.00000000e+01  0.00000000e+00
[...]
CELL_DATA      13005
SCALARS log(K) double
LOOKUP_TABLE default
-0.571161
-1.02843
-0.184628
0.810345
0.332043
0.0548263
0.342948
1.40647
2.59413
1.60267
2.12467
1.26682
0.834987
0.521168
0.316092
-0.486343
-0.574928
-0.0447912
-0.660301
-1.0463
-2.01261
-1.35519
-0.649191
-0.695184
-0.248619
-0.266228
0.847302
1.1026
0.0219905
-0.764147
-0.0618885
1.03374
1.24097
1.01078
0.50984
-0.0274068
0.3274
-0.424122
-0.482837
-0.217052
-1.08151
-0.770594
-0.474637
0.743154
0.316269
0.646875
0.182954
0.211653
-0.443748
-0.0710803
0.514477
-0.775805
0.166788
0.908935
2.23795
1.39758
1.32282
0.656939
0.880785
1.45099
2.01833
1.71074
1.80342
1.04535
-0.0828935
-0.16056
-0.0307571
-0.138622
0.378657
0.0661553
-0.0333508
-1.36908
-1.6639
-0.00834598
0.172877
-0.119084
1.02366
0.738342
0.642303
0.964862
0.256429
0.447574
0.85355
0.779035
1.30851
0.00749581
0.569634
0.0248643
0.00518937
0.118136
0.0240507
-0.532403
0.0691358
-0.720274
0.371352
0.449721
-0.309531
-0.244711
-0.285298
-1.10953
-1.20856
-1.03888
-1.02081
0.582787
1.56846
1.7798
1.90499
0.817841
1.08452
1.38357
1.7089
1.56496
1.38375
1.06334
0.600587
-0.022636
0.454939
0.296713
0.724156
1.18046
0.466783
-0.410513
-1.45544
-1.19861
-0.270529
0.388677
0.54085
1.01207
0.772095
0.7255
0.862986
0.687759
1.39553
1.32309
1.26468
1.40851
1.37569
0.775668
0.2072
0.363467
0.19085
-0.252117
0.162271
0.271078
-0.643182
-0.308717
0.024585
-0.40289
-0.657437
-0.628646
-0.77327
-1.13337
-0.522355
1.03628
0.788048
2.10459
1.65453
0.943485
1.13897
1.9167
2.55544
2.50444
2.11466
1.44321
1.25772
1.10292
-0.322216
-0.102902
0.845168
0.862172
2.52908
1.87649
0.132131
0.027761
0.157376
0.214455
-0.112143
0.0984355
0.20432
0.820379
0.665094
0.790192
0.98547
1.17726
1.93854
1.09722
1.51964
1.58598
1.31363
0.385284
0.626364
0.395938
0.579132
0.60385
0.817737
-0.263327
-0.119665
-0.571814
-0.193623
-0.152666
-0.847978
-0.740209
-0.649171
0.0691791
1.56065
1.00047
2.12118
2.03401
1.99729
2.10957
2.33808
2.55445
2.74161
1.11456
1.55016
1.44389
1.04438
0.761648
1.35767
1.61886
1.25164
1.84315
1.53283
0.659678
0.674545
0.662536
0.467675
0.0724034
0.685465
0.772692
0.491467
1.2997
1.35121
1.0946
0.898856
1.33301
1.81912
2.18849
1.85991
1.5289
0.966087
0.995755
1.01163
-0.17244
0.0824495
-0.551661
0.353362
0.713074
0.0783005
-0.260306
-0.465051
-0.54671
-0.338815
-0.719257
-0.499233
1.56007
1.90635
1.58389
1.04444
1.40802
1.85289
2.23099
2.17194
2.80235
1.46552
1.06109
1.7374
1.28262
1.63697
1.48383
1.09767
2.14617
1.16004
0.358662
-0.440147
-0.626793
-0.144116
0.319759
0.971026
2.13538
0.599737
-0.152287
0.257309
0.574991
1.10813
0.615996
1.80803
1.64565
2.00185
2.81591
2.06636
1.3145
0.434539
0.0898847
0.176749
-0.17812
0.517182
0.497396
0.66223
0.84855
0.374977
-0.222188
-0.302898
0.605598
0.188552
-0.696181
1.0268
1.08485
1.05322
1.86827
2.19857
1.37558
1.7658
2.64015
2.01233
1.85329
1.90928
2.15938
2.03047
1.95313
0.920832
0.979715
2.1808
0.261691
-0.420119
-0.758535
-1.14124
-0.44567
0.0188459
1.14523
0.862531
-0.345772
0.105956
-0.0624247
0.30116
0.292058
1.19729
0.504378
0.837212
1.65845
2.26651
1.70042
2.17052
1.49487
0.339817
0.811245
0.364234
0.636283
1.41293
0.449114
1.30044
0.157307
-0.243279
0.166551
0.00647478
0.746883
-0.0263992
1.38026
0.808691
1.19947
2.10479
2.22331
1.30045
1.81812
2.41033
1.09483
1.18402
1.13454
2.64587
1.70607
2.01818
0.363757
0.210506
0.0668234
-0.460758
-0.574405
-0.258309
0.0416866
-0.273776
0.0493841
-0.119851
0.172448
-0.567523
-1.19292
-0.571122
-0.0447815
0.206272
-0.287784
-0.146228
0.478348
0.985797
0.727984
0.463998
0.683047
0.745273
0.724618
1.23512
0.349487
0.716173
1.11687
1.57637
1.74427
0.603906
0.00508599
0.229305
0.539294
0.0674829
-0.369723
1.12549
1.32958
1.78815
1.38322
1.75993
1.72074
1.31733
1.69617
1.16906
1.53434
0.729746
1.54717
1.93484
2.02912
0.348538
0.723521
1.21402
0.710614
0.0479872
-0.206782
-0.0867076
0.457513
-0.408492
-0.285685
0.113365
-0.422162
-0.492855
-0.247074
-0.320409
0.194812
-0.64201
-0.617083
-0.174947
0.384531
1.10135
0.987554
1.67615
1.24344
0.547867
-0.149926
0.155641
0.829333
2.01002
1.28954
0.595414
0.744891
0.873129
0.834014
0.547155
0.436945
0.226657
1.52639
1.22968
1.26192
1.30497
2.18888
2.00249
1.32536
0.689189
1.25306
1.29066
1.16563
1.27247
1.08028
2.0311
1.56467
0.70907
0.197143
0.337654
-0.357586
0.127033
0.446241
1.14416
-0.449692
-0.537532
-0.0181996
-0.568837
-0.384859
-0.129217
-0.372788
-0.499265
0.424855
0.982683
0.285978
0.474785
0.465014
0.711387
0.464301
1.206
0.122769
-0.836852
-0.837072
0.422187
-0.0669027
0.483019
0.416507
1.2035
1.79606
0.511866
1.52768
-0.0385877
0.160876
1.2859
1.03876
1.40981
1.42304
2.45667
1.56548
1.71483
0.83868
0.334404
0.979776
0.928028
1.84475
1.14849
1.1841
1.65097
1.27902
0.118614
0.643964
1.02402
2.04439
1.57427
1.26067
0.485091
-0.118095
-0.691439
-0.284247
-0.640175
-0.822971
-0.220319
-0.0754143
0.562598
0.532031
0.571357
-0.307447
-0.493873
-0.0330877
0.413468
0.342675
-0.242316
-1.06439
-0.969692
-0.501852
-0.249423
0.0209869
0.669222
0.929106
1.19728
0.629498
0.680018
0.366653
0.445299
1.54221
1.06238
1.30458
1.58826
1.85916
1.57554
1.11094
1.42564
1.78052
1.10296
1.33599
1.64744
2.03804
1.45812
1.79044
1.16526
0.33758
0.753323
1.38514
1.97175
2.04539
1.75124
0.531128
0.25524
0.332291
-0.0770203
-0.628431
-0.735091
-0.272095
-0.167593
0.43096
-0.0357893
0.217537
-0.300503
-0.145648
-0.219756
0.505915
0.311863
-0.106408
-0.22658
0.0178759
-0.416515
-0.0724621
0.263467
0.885671
1.23409
1.31074
0.65141
0.318678
0.618909
0.988045
0.428264
0.737718
1.60379
2.435
1.17691
0.859371
1.06492
0.980087
1.29209
1.75007
1.36135
2.24931
1.99071
2.06639
2.21311
1.13252
0.0894848
1.14109
1.66792
2.71015
1.88264
1.03237
0.300303
0.117392
-0.444067
0.0473001
-0.0308926
0.0112533
-0.0863122
-0.177509
-0.102034
0.251675
-0.235636
-0.219596
0.497891
0.644579
0.638283
0.635713
0.661287
-0.0442834
-0.429991
-0.892599
-0.74864
0.206605
0.898444
1.63337
1.49023
0.685042
0.226001
1.55404
1.21067
0.259318
0.785166
1.5614
1.99059
1.29176
0.473568
0.50956
0.608608
0.716575
1.58618
2.18882
3.31526
2.99723
2.28421
2.31932
2.10082
1.27003
2.1797
2.17727
0.985601
1.32098
-0.173365
-0.355628
0.422604
-0.457233
0.110293
1.03284
0.136627
-0.109117
-0.922491
-0.233455
0.743319
0.0280354
0.2404
0.411648
0.211524
0.488679
0.15422
-0.119032
0.279647
-1.33875
-0.646148
-0.172688
0.0420607
0.95796
1.42564
1.73714
0.747212
0.119174
0.862387
0.443538
1.03457
1.03348
1.56639
0.956187
0.98956
1.06693
0.695127
0.981054
0.166644
1.40746
2.86671
3.53945
2.95243
2.30313
2.73545
2.22151
1.03588
1.73518
1.47551
0.518136
0.84987
-0.062872
-0.123234
0.0850468
0.162113
0.575373
1.04967
0.314945
-0.13218
0.106186
0.257756
0.258234
0.67709
0.155632
0.590395
0.268026
0.538751
0.510459
0.592603
-0.334373
-0.583315
-0.13237
0.506331
0.266918
0.318536
1.22595
0.850318
0.425607
-0.292304
0.318805
0.981112
1.14002
1.1112
1.07772
1.59366
-0.685416
0.836267
0.805788
0.90334
1.33197
2.26144
2.80767
3.10801
3.29509
1.90541
1.83349
1.18289
2.06534
1.42495
1.59537
0.939081
0.512676
0.795053
-0.445377
0.218592
0.755745
0.513582
1.27893
0.115947
0.229216
-0.585903
-0.169077
0.411012
0.135676
0.155612
0.538868
0.687011
1.15716
1.06273
0.190704
0.805312
0.903602
0.714982
0.942641
0.461363
0.274647
0.880113
0.881816
0.957871
1.38582
2.01093
1.16972
1.15045
1.21277
1.29467
1.90618
0.920393
0.0838056
1.52966
1.11933
2.12745
3.04159
2.94819
2.55818
2.44229
2.65989
1.71623
0.9152
1.16833
0.316181
0.835398
0.927962
0.285677
-0.40529
0.370354
0.20674
1.00907
0.721448
0.864505
0.591118
0.228999
-0.913974
-0.385576
-0.533268
0.126162
0.332746
1.4292
1.7956
1.27645
0.823205
1.00302
1.25364
1.27437
1.73411
1.5231
1.29596
1.26061
0.627305
0.777228
1.9778
1.26239
1.77953
1.28982
0.990582
2.36425
1.54377
1.33415
0.294519
0.858724
1.42344
1.11929
2.27771
2.29346
2.23865
1.86894
1.51789
2.33354
2.40823
1.75106
0.854334
0.942902
0.978719
-0.467574
-0.109625
-0.467232
0.116023
0.468536
0.594991
0.852359
1.38752
0.976581
0.212826
-0.532399
-1.10625
-0.862993
0.1464
0.523185
1.39104
1.34661
1.11311
0.86487
1.01064
1.76726
1.96703
1.80001
2.60178
2.32174
1.99525
0.863826
1.28089
0.57655
1.87811
2.05695
2.48886
1.58121
1.17457
1.19226
1.48831
1.40607
1.37394
1.65815
0.992776
1.95267
3.0736
2.65544
1.82645
1.27012
1.49056
2.20461
2.77503
1.70746
0.72451
0.463144
0.47374
-0.466005
-0.809927
-0.184753
-0.263519
0.825486
0.819065
1.16493
0.716202
0.490853
-0.79773
-1.07386
-0.744024
0.389264
0.206094
0.515733
1.05499
1.41116
1.1098
1.64094
1.91545
2.75296
2.27048
2.64811
1.72716
2.60032
2.24031
2.0235
1.84647
2.08438
2.43019
1.69185
1.1703
1.03002
1.08933
1.79698
1.23461
1.38137
1.18621
1.50135
1.77626
2.72933
2.23317
1.22713
1.36359
1.42662
1.68305
1.89182
1.78913
0.317061
0.350918
0.0606192
-1.15368
-1.2446
-0.604863
-0.623314
-0.555961
0.690201
0.52239
-0.137756
-0.258131
-0.964968
-0.597517
-0.861628
0.310544
0.650779
0.899175
1.55721
1.00246
1.42744
1.65033
2.33298
2.11962
1.22729
1.75647
1.41501
1.51171
1.60286
1.90102
2.21332
2.33661
1.80003
1.40856
1.09446
0.870462
1.58605
2.0868
1.96243
1.40122
1.31571
1.6553
2.3963
1.09215
1.37026
1.46258
1.84675
1.49943
1.73292
2.26736
2.27916
1.23801
0.324003
0.725474
-0.701806
-1.85323
-1.47753
-1.9575
-0.738849
0.750275
0.516877
-0.137075
-0.153074
-1.40687
-1.41415
-0.929797
0.581471
0.245826
0.94996
0.501089
0.53307
1.17694
0.820466
1.05182
1.10974
0.505751
1.05664
0.755426
1.54052
1.29694
2.00893
2.08292
1.4475
1.17702
1.43105
0.817001
0.770148
1.25045
1.86378
1.90201
1.90185
0.676029
1.13635
1.29154
1.38349
1.27221
1.38537
1.95828
2.22773
2.49416
1.74189
2.05048
1.9871
1.06234
0.877496
0.361049
-1.3822
-1.98653
-0.845003
-1.33988
-0.0687178
0.518357
0.466588
-0.477919
-0.827831
-0.511227
-1.10988
0.0206663
0.704998
1.28414
0.818981
0.986096
0.81585
0.991435
0.93827
0.979273
0.73014
0.742884
1.22126
1.52069
1.06739
1.58937
1.36454
0.773167
0.686074
0.783974
1.20275
1.72113
1.15166
1.40284
1.68073
1.78523
1.43769
1.12576
0.574372
0.729672
0.293843
0.44855
1.76332
1.7943
2.20929
1.63136
1.66274
1.23021
1.35992
1.51696
0.931385
-0.150421
-0.853755
-1.1719
-1.28202
-0.812377
0.471907
-0.450925
-0.0950204
-0.365564
-0.245037
-0.507425
0.132244
0.6156
1.22038
1.4536
1.03792
1.55035
1.60451
1.11227
0.971346
1.31182
0.77312
1.06373
1.73894
0.964064
1.0579
2.13759
0.818226
0.672461
0.374142
1.10141
1.3797
0.549025
0.503008
0.282216
0.317763
0.402515
0.712818
1.60811
0.484002
1.14932
0.779035
0.59338
1.41548
1.04492
1.13006
1.83585
0.620322
-0.0344387
0.52178
0.190674
0.374315
-0.641689
-0.255901
-1.13021
-0.427901
0.319345
0.311621
-0.0771187
-0.51779
-0.528726
0.077691
-0.347236
0.669169
1.59033
1.12334
1.23633
1.44055
1.29
1.27385
1.21228
1.97815
0.858226
0.0537651
0.214875
0.93174
0.407278
0.324673
0.046852
-0.0118791
0.313453
0.170491
0.597936
-0.0425922
0.796496
0.48826
0.141193
0.384805
0.551815
0.703724
0.484343
0.577149
1.35223
1.52449
1.39814
-0.038833
0.0514265
0.861943
-0.22344
-0.776491
0.35063
0.625309
0.030508
-0.391579
-0.97381
-0.353823
-0.397123
0.611884
0.427306
-0.673544
-0.38958
-0.00303587
-0.0237966
-0.651998
0.4096
1.79221
1.65036
1.74684
1.82715
1.90999
1.65608
1.42
1.30867
0.867538
0.0338996
-0.368248
-0.0560586
-0.384372
-0.968107
-0.200849
0.435162
-0.125473
1.00173
1.36936
0.86484
1.36731
0.685465
0.0788061
-0.0665206
-0.439622
0.107416
-0.0463622
0.161282
0.312034
0.442401
0.917227
0.137795
-0.365482
-0.591864
-0.951456
-0.216172
-0.942529
-0.117697
-0.346576
-0.728951
-0.756816
-0.792922
-0.0141375
0.0180285
0.503465
0.0409626
0.615831
0.467724
0.20678
0.27722
0.271431
0.697411
2.29187
1.56855
2.47752
2.5233
1.79573
1.03758
1.47234
1.23473
0.578463
-0.429822
-0.725965
-0.807117
-0.45897
0.189612
-0.852548
-0.377343
1.24923
1.35658
1.19277
0.848765
0.710128
0.181788
0.427304
-0.101918
-0.866546
0.0182217
-0.47511
0.0671838
0.54133
0.00531014
-0.41083
-0.588099
-0.471414
-0.518222
-0.797534
-1.36073
0.0128333
0.097974
-0.0405412
-0.577416
-1.06857
-0.075407
0.970416
1.34885
0.778756
0.506884
0.290195
0.686841
0.988205
0.0742505
0.160828
1.98277
2.0159
2.75526
3.25743
2.36984
1.57461
0.324795
0.515314
-0.438694
-1.84423
-0.511503
-0.733436
-0.14792
0.303488
-0.340434
0.899199
1.72431
1.0927
0.587942
0.142283
0.0570902
0.813984
1.19351
-0.647999
0.0212515
0.251958
0.19018
0.092727
-0.854432
-1.32948
-0.404983
-0.340618
-1.23698
-0.845951
-1.67516
-1.00626
-0.528717
-0.50672
-0.270877
-0.375626
-0.233534
0.0229416
0.913242
1.46548
1.21392
1.1621
0.263634
0.523867
0.785231
0.922573
1.43446
1.42264
1.25264
2.0707
2.10367
1.71331
1.94801
1.38738
0.0908611
-0.41223
-1.01889
-1.04972
-1.09494
0.385596
-0.0304512
0.406163
0.709975
1.80358
1.33608
1.09471
0.494228
0.662589
1.57073
0.9094
0.588037
0.0843658
0.504609
1.08107
0.51005
0.0447223
0.0359895
0.384262
0.193485
-0.264883
0.16611
-0.479329
-1.63871
-1.31666
-1.29045
-0.988458
0.052195
0.165535
-0.872793
0.224042
0.426141
1.16961
0.826415
1.20308
1.24825
1.92408
1.65147
1.87963
1.4671
1.73442
0.821829
0.173499
0.431019
0.156259
0.691057
-0.606556
-0.183422
-0.519357
-0.438389
-0.284586
1.07067
0.616555
0.648437
0.408688
2.07236
1.5132
1.30085
0.516676
0.40098
0.551638
1.15124
0.741533
0.400091
0.164999
0.443539
0.918746
0.776404
0.293424
0.552814
1.14074
-0.362212
-0.0949917
-0.26114
-1.52423
-1.56198
-1.91816
-1.83518
-1.17489
-0.460807
-1.19547
0.0474074
-0.366029
0.867084
0.825142
2.11109
2.25389
2.12195
2.69074
2.85561
2.3145
1.71219
0.460389
0.756648
0.475002
-0.0431737
-0.454191
0.4533
0.434228
0.603978
0.253134
0.927282
0.974487
1.55976
0.425392
-0.316252
2.30986
2.25723
2.05821
1.78609
0.889608
0.517385
1.74717
1.10012
1.51621
1.20815
1.05288
1.02373
0.659294
1.18494
0.567056
0.246339
-0.0834791
0.539932
0.193639
-0.510883
-1.22075
-1.754
-2.31528
-1.09841
0.660451
0.136678
0.316376
0.773606
1.18793
1.38729
2.41633
2.36411
3.2858
3.35927
3.40307
2.51884
1.50761
0.539882
1.23255
1.05993
0.0171678
0.581216
1.00201
0.676741
0.887092
1.62748
1.41479
1.67754
1.44327
1.09663
0.372067
1.53505
2.81396
1.60249
1.58361
0.696788
1.38057
1.87074
1.19442
1.38857
2.18538
1.11773
1.31185
0.973845
0.522262
0.985617
0.917469
0.683777
0.521346
-0.391578
-0.714127
-1.26834
-0.703115
0.282016
-0.297037
0.079332
0.905335
1.10227
0.656177
0.60775
1.19788
1.88796
2.77812
2.7292
2.73937
3.09472
1.91122
1.02598
0.998572
1.14997
1.1038
0.886624
1.36024
0.714886
1.83324
0.609197
1.20808
0.21328
1.6505
1.60838
1.15955
1.22981
1.33406
1.46208
0.566233
0.69583
0.0358308
0.418144
1.35086
1.3502
2.15416
2.16303
0.692931
1.26097
0.80946
-0.260291
1.26574
0.904642
0.0927938
-0.136368
0.2461
-0.234368
0.0345824
-0.230374
1.04232
0.108882
0.545404
0.8265
1.18111
0.953033
1.45634
1.23776
1.42563
2.8752
3.00174
2.97035
2.71705
2.48606
2.83695
0.955157
0.782762
0.595725
1.47854
1.65498
1.29713
1.42716
0.772435
0.822488
0.725907
1.74091
2.28968
1.68416
1.10217
1.04778
0.771459
-0.119704
0.626169
0.429707
-0.0676141
-0.0435957
0.538835
1.08351
1.10734
1.30361
0.449054
0.00538765
-1.11282
0.174007
0.440588
0.382536
0.851107
0.614849
-0.00165424
0.555883
0.0485924
0.306471
0.626042
1.42368
2.06495
0.513599
0.0240045
1.28045
0.818121
1.54055
1.97325
2.41673
2.92407
2.19977
2.42544
3.07742
2.32796
1.28693
0.597075
1.15885
1.11823
1.55007
0.682804
0.736966
0.626899
0.856756
2.24965
2.62957
2.22326
1.54552
0.526726
0.250534
0.102374
-0.17028
-0.657992
-0.334384
-0.451083
-0.554969
0.334107
1.14718
0.403591
0.00955419
-0.688754
-0.89268
-0.298227
-0.485991
-0.469834
0.0517871
0.087459
0.0435754
-1.02702
-0.53918
-0.0821048
-0.160413
0.67906
1.05469
0.389347
0.55281
0.790032
0.778868
1.81824
1.14795
1.73324
2.21853
1.47206
1.54695
1.66836
1.00934
1.2488
0.583182
0.221572
0.660766
0.530574
-0.380164
-0.51283
0.773791
0.465071
1.32135
2.12449
2.81241
2.06722
-0.071425
0.267691
0.028235
-0.257847
-0.451336
-0.169794
-0.776674
-0.381631
0.169072
-0.164021
0.381881
-0.155603
-1.17595
-1.13769
-0.688589
-0.664887
0.135679
-0.144019
-0.031122
-0.180451
-0.382464
0.0724968
-0.181743
0.243309
1.11202
1.18291
1.07838
0.692452
0.0384366
0.238279
0.549254
0.725799
1.83434
2.56002
2.14855
1.50811
0.889486
0.951827
0.696066
0.437637
0.403884
0.884626
0.193898
-1.30114
-0.355677
0.342394
0.695728
0.951961
1.49854
0.525759
0.498112
0.867823
0.309052
-0.584941
-0.479799
0.0218878
-0.0124534
0.480944
0.25227
-0.338154
-0.650558
0.210041
-0.338503
-0.38278
-1.42647
-0.733443
-0.983729
0.464834
-0.143547
0.288424
0.23596
0.373633
0.71268
0.996256
0.553716
0.302476
0.310345
1.49214
0.703627
0.50019
-0.165461
0.216997
0.842203
1.38032
1.5344
1.90638
1.32875
0.59158
0.438021
-0.216994
0.120261
-0.383356
-0.47848
-0.223014
-0.601123
-0.275016
-1.00574
-0.255926
0.18998
-0.0623712
-0.0381612
-0.375076
0.646481
0.612743
-0.702986
-0.702348
-0.0605731
0.387107
0.981881
-0.186195
-0.295201
-0.349405
-0.363084
-0.666209
-0.232108
-0.503895
-0.170972
0.229021
0.422681
0.501783
0.779701
0.573592
1.15165
0.639728
0.880283
0.510497
0.203285
-0.0846913
0.964763
0.383017
0.551364
0.293695
0.0590428
0.127831
0.618508
1.87349
0.598707
0.54683
-0.679346
-1.12436
-0.200763
-0.220769
-0.296502
0.0284398
0.399682
0.408734
-0.656714
-0.993377
0.184462
0.0607815
0.0404341
0.156229
0.799082
-0.117174
-0.545841
-0.441103
-0.2745
-1.00599
-0.166641
0.592592
-0.508792
-0.133609
0.00905333
-0.365347
-0.417508
0.357131
-0.286206
0.0643591
-0.289484
0.297444
1.14387
1.66436
1.20833
1.31184
0.77444
-0.151761
0.565833
0.0444834
-0.0689963
-0.562221
-0.532721
0.124433
-0.47909
0.193605
0.343151
0.885371
1.38852
0.771726
-0.437157
-0.662431
-0.636724
-0.191073
0.533814
0.559823
0.410238
0.164416
0.500772
-0.12317
-0.787128
-0.467115
-0.58473
-0.489436
-0.7593
0.640334
0.0731945
0.37153
-0.578587
-0.257846
0.147394
-0.0337541
0.0290701
-0.0811879
-1.03335
-0.420171
-0.782078
-0.749912
-0.944192
-0.649011
-0.599914
0.364184
0.543308
1.32263
1.60682
1.80793
0.896743
1.31853
0.284222
0.553206
-0.0611133
-0.255659
0.153064
-0.521437
0.492751
-0.16885
0.79904
0.983663
0.804996
0.701335
0.221563
-0.484503
-0.868466
-0.393611
-0.615957
-0.694757
0.172035
0.652018
0.70638
0.326638
0.119589
-0.0265862
-0.195378
-0.790186
-1.38091
-0.814226
-0.22938
-0.0866085
0.0744371
0.14649
0.0455498
0.342232
-0.103533
0.429912
-0.412127
-0.629685
-0.0390251
-0.726185
-0.864493
-1.18663
-0.326999
-0.362401
0.210752
0.483383
1.31715
1.79903
1.35005
1.16846
1.21066
1.06483
0.750344
0.0405546
0.306617
0.162319
0.236488
0.00194989
1.25615
1.77943
1.71613
0.92698
0.378835
0.151789
-0.847384
-1.09514
-1.23432
-0.949424
-0.908688
-0.196943
1.03883
0.885976
0.292713
1.13568
1.18285
0.330495
-0.929067
-1.39266
-1.02652
-0.216192
-0.908378
-0.830659
-0.0933159
0.679873
0.42193
0.571445
0.614624
0.798984
-0.0203944
-0.0097763
-0.627872
-0.34174
-0.676792
0.041839
0.629576
0.872463
0.801245
0.806986
0.685908
1.39454
1.28648
2.29728
2.2223
1.34654
0.457112
0.631561
0.168143
-0.298846
0.490759
1.78227
0.780359
0.669388
0.192179
0.32846
0.00859201
-1.23831
-1.73149
-2.0082
-0.535052
-0.375155
0.638036
0.655455
1.64406
1.11086
1.17133
1.24429
0.675444
-0.163182
-0.527635
-0.823354
-0.26814
-0.297645
-0.471932
0.0668488
0.110728
0.436524
0.561241
0.611773
1.7281
1.22426
0.253048
-0.123446
0.196082
0.209714
0.796483
1.47507
1.06192
0.638633
0.642649
0.840739
0.931533
1.10135
1.52031
1.58995
1.80367
1.28003
1.16384
0.963893
1.40577
1.3262
1.66978
1.49418
0.707763
0.459212
1.09883
0.209458
-0.781746
-1.47901
-1.87107
-0.657545
-0.497274
1.06759
0.743685
1.25671
1.27784
1.34307
1.5492
1.70912
0.901086
0.350218
-0.146535
-0.295526
0.661415
0.346932
0.271143
-1.05506
-0.211481
0.529485
0.578325
-0.15785
0.480362
0.0394799
-0.627719
-0.598375
-0.597033
1.04609
0.567032
0.828053
-0.129858
0.857782
0.959325
0.514321
1.02363
1.60033
1.19623
1.09916
1.8181
1.80528
2.02089
2.03386
1.88577
1.56688
1.74805
1.10151
0.016479
-0.0883584
0.496349
0.582779
-0.375927
-2.03065
-0.397352
-0.370627
0.517595
0.748258
-0.110743
1.13494
1.9564
1.34787
0.895116
0.792142
0.24311
0.463229
0.896075
0.0902915
-0.373227
-0.582576
-0.0086606
0.221643
0.995658
0.666247
-0.594089
-0.441638
-0.142559